<UPF version="2.0.1">
   <PP_INFO>
         UPF file from ATOMPAW code with following input
           Na 11
           LDA-PW   loggridv4    2001
           3 2 0 0 0 0
           3 0 1
           0 0 0
           c
           v
           v
           v
           1
           1.7   1.5   1.7    1.7
           n
           y
           4.6
           n
           VANDERBILT  Besselshape
           2 0   MTROULLIER
           1.5
           1.7
           1.5
           1.7
  </PP_INFO>
  <!--                               -->
  <!-- END OF HUMAN READABLE SECTION -->
  <PP_HEADER generated="Generated using ATOMPAW code"
             author="   "
             date=" 07/21/2013, 19:18:13.750"
             element="Na"
             pseudo_type="PAW"
             relativistic="no"
             is_ultrasoft="T"
             is_paw="T"
             is_coulomb="F"
             has_so="F"
             has_wfc="T"
             has_gipaw="T"
             paw_as_gipaw="T"
             core_correction="T"
             functional="SLA PW NOGX NOGC"
             z_valence=" 9.000"
             l_max="1"
             l_max_rho="2"
             mesh_size="  2000"
             number_of_wfc="     4"
             number_of_proj=" 4"
                                    /> 
<PP_MESH dx=" 1.2500000000000E-02" mesh="   969" xmin="-7.0000000000000E+00" zmesh=" 1.1000000000000E+01">
 <PP_R type="real" size="   969" columns="3">
  8.28983605049560246E-05  8.39410935153656594E-05  8.49969424924165604E-05
  8.60660724146594458E-05  8.71486503358199859E-05  8.82448454109008079E-05
  8.93548289226126099E-05  9.04787743081373935E-05  9.16168571862282193E-05
  9.27692553846504175E-05  9.39361489679670070E-05  9.51177202656744051E-05
  9.63141539006918322E-05  9.75256368182088009E-05  9.87523583148961653E-05
  9.99945100684834814E-05  1.01252286167709387E-04  1.02525883142648392E-04
  1.03815499995418869E-04  1.05121338231277972E-04  1.06443601890106763E-04
  1.07782497578292079E-04  1.09138234501009171E-04  1.10511024494910426E-04
  1.11901082061225543E-04  1.13308624399277230E-04  1.14733871440419501E-04
  1.16177045882402216E-04  1.17638373224168003E-04  1.19118081801087273E-04
  1.20616402820635597E-04  1.22133570398520616E-04  1.23669821595263067E-04
  1.25225396453237909E-04  1.26800538034181707E-04  1.28395492457171050E-04
  1.30010508937079502E-04  1.31645839823517780E-04  1.33301740640263911E-04
  1.34978470125189708E-04  1.36676290270688390E-04  1.38395466364611973E-04
  1.40136267031722758E-04  1.41898964275666560E-04  1.43683833521474281E-04
  1.45491153658596758E-04  1.47321207084482437E-04  1.49174279748702358E-04
  1.51050661197630351E-04  1.52950644619685570E-04  1.54874526891143096E-04
  1.56822608622522020E-04  1.58795194205556327E-04  1.60792591860756438E-04
  1.62815113685569983E-04  1.64863075703146832E-04  1.66936797911718837E-04
  1.69036604334600089E-04  1.71162823070816132E-04  1.73315786346370590E-04
  1.75495830566155389E-04  1.77703296366515180E-04  1.79938528668472427E-04
  1.82201876731621736E-04  1.84493694208703093E-04  1.86814339200859909E-04
  1.89164174313593582E-04  1.91543566713421273E-04  1.93952888185246192E-04
  1.96392515190450400E-04  1.98862828925716839E-04  2.01364215382592450E-04
  2.03897065407800300E-04  2.06461774764309715E-04  2.09058744193175999E-04
  2.11688379476155790E-04  2.14351091499112074E-04  2.17047296316215757E-04
  2.19777415214954860E-04  2.22541874781962101E-04  2.25341106969668959E-04
  2.28175549163799860E-04  2.31045644251714403E-04  2.33951840691609084E-04
  2.36894592582590743E-04  2.39874359735629225E-04  2.42891607745404609E-04
  2.45946808063056985E-04  2.49040438069851675E-04  2.52172981151771696E-04
  2.55344926775046639E-04  2.58556770562633404E-04  2.61809014371658432E-04
  2.65102166371833435E-04  2.68436741124858792E-04  2.71813259664823641E-04
  2.75232249579619595E-04  2.78694245093376650E-04  2.82199787149937150E-04
  2.85749423497380032E-04  2.89343708773606061E-04  2.92983204593002394E-04
  2.96668479634195302E-04  3.00400109728907476E-04  3.04178677951933796E-04
  3.08004774712246517E-04  3.11878997845248566E-04  3.15801952706186667E-04
  3.19774252264738929E-04  3.23796517200793587E-04  3.27869376001430025E-04
  3.31993465059122117E-04  3.36169428771175614E-04  3.40397919640416378E-04
  3.44679598377146143E-04  3.49015134002378521E-04  3.53405203952375491E-04
  3.57850494184498496E-04  3.62351699284390065E-04  3.66909522574505322E-04
  3.71524676224006074E-04  3.76197881360039682E-04  3.80929868180416296E-04
  3.85721376067703673E-04  3.90573153704758139E-04  3.95485959191706259E-04
  4.00460560164400540E-04  4.05497733914363795E-04  4.10598267510242339E-04
  4.15762957920788449E-04  4.20992612139385971E-04  4.26288047310146450E-04
  4.31650090855588897E-04  4.37079580605925961E-04  4.42577364929978476E-04
  4.48144302867731963E-04  4.53781264264565198E-04  4.59489129907164932E-04
  4.65268791661150119E-04  4.71121152610429520E-04  4.77047127198307688E-04
  4.83047641370370508E-04  4.89123632719165526E-04  4.95276050630702219E-04
  5.01505856432797365E-04  5.07814023545281813E-04  5.14201537632100777E-04
  5.20669396755325939E-04  5.27218611531103730E-04  5.33850205287568404E-04
  5.40565214224735836E-04  5.47364687576414478E-04  5.54249687774148870E-04
  5.61221290613227370E-04  5.68280585420778261E-04  5.75428675225977027E-04
  5.82666676932398504E-04  5.89995721492535155E-04  5.97416954084510209E-04
  6.04931534291015794E-04  6.12540636280497000E-04  6.20245448990620787E-04
  6.28047176314048389E-04  6.35947037286546451E-04  6.43946266277465955E-04
  6.52046113182608994E-04  6.60247843619535539E-04  6.68552739125312379E-04
  6.76962097356757992E-04  6.85477232293206897E-04  6.94099474441814716E-04
  7.02830171045460989E-04  7.11670686293252122E-04  7.20622401533681277E-04
  7.29686715490469179E-04  7.38865044481110101E-04  7.48158822638184530E-04
  7.57569502133437190E-04  7.67098553404684620E-04  7.76747465385576913E-04
  7.86517745738239422E-04  7.96410921088857096E-04  8.06428537266205251E-04
  8.16572159543192352E-04  8.26843372881438574E-04  8.37243782178921886E-04
  8.47775012520756940E-04  8.58438709433110127E-04  8.69236539140318554E-04
  8.80170188825244826E-04  8.91241366892893427E-04  9.02451803237364720E-04
  9.13803249512144160E-04  9.25297479403806205E-04  9.36936288909159050E-04
  9.48721496615864018E-04  9.60654943986604943E-04  9.72738495646811581E-04
  9.84974039676013782E-04  9.97363487902862451E-04  1.00990877620384611E-03
  1.02261186480578762E-03  1.03547473859212516E-03  1.04849940741305646E-03
  1.06168790639958664E-03  1.07504229628151062E-03  1.08856466370942009E-03
  1.10225712158073630E-03  1.11612180936985789E-03  1.13016089346246293E-03
  1.14437656749399983E-03  1.15877105269246070E-03  1.17334659822544295E-03
  1.18810548155158903E-03  1.20305000877644918E-03  1.21818251501280253E-03
  1.23350536474553952E-03  1.24902095220110398E-03  1.26473170172160167E-03
  1.28064006814361227E-03  1.29674853718175060E-03  1.31305962581707990E-03
  1.32957588269038383E-03  1.34629988850040001E-03  1.36323425640706513E-03
  1.38038163243981316E-03  1.39774469591103932E-03  1.41532615983473546E-03
  1.43312877135040790E-03  1.45115531215232936E-03  1.46940859892417041E-03
  1.48789148377912969E-03  1.50660685470556865E-03  1.52555763601826895E-03
  1.54474678881537115E-03  1.56417731144103478E-03  1.58385223995395597E-03
  1.60377464860174206E-03  1.62394765030127587E-03  1.64437439712511934E-03
  1.66505808079401630E-03  1.68600193317562587E-03  1.70720922678949181E-03
  1.72868327531838697E-03  1.75042743412608462E-03  1.77244510078163595E-03
  1.79473971559025291E-03  1.81731476213085733E-03  1.84017376780039928E-03
  1.86332030436502354E-03  1.88675798851815836E-03  1.91049048244563914E-03
  1.93452149439792497E-03  1.95885477926952467E-03  1.98349413918570651E-03
  2.00844342409658592E-03  2.03370653237869119E-03  2.05928741144408836E-03
  2.08519005835717565E-03  2.11141852045923419E-03  2.13797689600082799E-03
  2.16486933478217099E-03  2.19210003880153425E-03  2.21967326291182135E-03
  2.24759331548539994E-03  2.27586455908728629E-03  2.30449141115681311E-03
  2.33347834469785744E-03  2.36282988897775891E-03  2.39255063023502846E-03
  2.42264521239595300E-03  2.45311833780022595E-03  2.48397476793568803E-03
  2.51521932418232548E-03  2.54685688856562007E-03  2.57889240451937259E-03
  2.61133087765813045E-03  2.64417737655931601E-03  2.67743703355520805E-03
  2.71111504553488277E-03  2.74521667475622743E-03  2.77974724966819058E-03
  2.81471216574335397E-03  2.85011688632098989E-03  2.88596694346072297E-03
  2.92226793880691511E-03  2.95902554446394843E-03  2.99624550388248763E-03
  3.03393363275691625E-03  3.07209581993405072E-03  3.11073802833327544E-03
  3.14986629587827487E-03  3.18948673644045815E-03  3.22960554079426958E-03
  3.27022897758451510E-03  3.31136339430583961E-03  3.35301521829454692E-03
  3.39519095773287453E-03  3.43789720266591669E-03  3.48114062603133287E-03
  3.52492798470200068E-03  3.56926612054180156E-03  3.61416196147466536E-03
  3.65962252256707725E-03  3.70565490712420221E-03  3.75226630779977718E-03
  3.79946400771999241E-03  3.84725538162148349E-03  3.89564789700365356E-03
  3.94464911529548903E-03  3.99426669303703814E-03  4.04450838307577470E-03
  4.09538203577798372E-03  4.14689560025540034E-03  4.19905712560728409E-03
  4.25187476217808898E-03  4.30535676283099345E-03  4.35951148423740706E-03
  4.41434738818272457E-03  4.46987304288850792E-03  4.52609712435126776E-03
  4.58302841769812550E-03  4.64067581855949225E-03  4.69904833445903766E-03
  4.75815508622112575E-03  4.81800530939598213E-03  4.87860835570273939E-03
  4.93997369449068139E-03  5.00211091421884184E-03  5.06502972395421816E-03
  5.12873995488884963E-03  5.19325156187593583E-03  5.25857462498531634E-03
  5.32471935107850514E-03  5.39169607540351987E-03  5.45951526320981317E-03
  5.52818751138345246E-03  5.59772355010293085E-03  5.66813424451576876E-03
  5.73943059643621575E-03  5.81162374606432417E-03  5.88472497372659591E-03
  5.95874570163857850E-03  6.03369749568960414E-03  6.10959206724997778E-03
  6.18644127500092653E-03  6.26425712678750721E-03  6.34305178149487895E-03
  6.42283755094814803E-03  6.50362690183611033E-03  6.58543245765922346E-03
  6.66826700070201252E-03  6.75214347403035528E-03  6.83707498351385744E-03
  6.92307479987366598E-03  7.01015636075606480E-03  7.09833327283210594E-03
  7.18761931392369879E-03  7.27802843515641673E-03  7.36957476313938528E-03
  7.46227260217261802E-03  7.55613643648205078E-03  7.65118093248276423E-03
  7.74742094107062559E-03  7.84487149994277273E-03  7.94354783594730836E-03
  8.04346536746248369E-03  8.14463970680588331E-03  8.24708666267386786E-03
  8.35082224261171797E-03  8.45586265551486263E-03  8.56222431416151647E-03
  8.66992383777724120E-03  8.77897805463171560E-03  8.88940400466818603E-03
  9.00121894216602755E-03  9.11444033843670370E-03  9.22908588455373553E-03
  9.34517349411694877E-03  9.46272130605151258E-03  9.58174768744221236E-03
  9.70227123640329120E-03  9.82431078498448296E-03  9.94788540211354391E-03
  1.00730143965758155E-02  1.01997173200312485E-02  1.03280139700694332E-02
  1.04579243933029479E-02  1.05894688884997298E-02  1.07226680097547798E-02
  1.08575425697017836E-02  1.09941136427651534E-02  1.11324025684529041E-02
  1.12724309546910258E-02  1.14142206811997556E-02  1.15577939029123267E-02
  1.17031730534367488E-02  1.18503808485610641E-02  1.19994402898027531E-02
  1.21503746680027731E-02  1.23032075669647911E-02  1.24579628671402255E-02
  1.26146647493595720E-02  1.27733376986107431E-02  1.29340065078648800E-02
  1.30966962819502979E-02  1.32614324414752193E-02  1.34282407267997134E-02
  1.35971472020577407E-02  1.37681782592296974E-02  1.39413606222662245E-02
  1.41167213512639108E-02  1.42942878466934247E-02  1.44740878536809402E-02
  1.46561494663433531E-02  1.48405011321780366E-02  1.50271716565078695E-02
  1.52161902069820505E-02  1.54075863181336540E-02  1.56013898959944403E-02
  1.57976312227677412E-02  1.59963409615601383E-02  1.61975501611725907E-02
  1.64012902609518979E-02  1.66075930957031610E-02  1.68164909006640259E-02
  1.70280163165415499E-02  1.72422023946123028E-02  1.74590826018867461E-02
  1.76786908263385154E-02  1.79010613821994589E-02  1.81262290153213802E-02
  1.83542289086050421E-02  1.85850966874976445E-02  1.88188684255593437E-02
  1.90555806500997994E-02  1.92952703478857374E-02  1.95379749709200592E-02
  1.97837324422939081E-02  2.00325811621121820E-02  2.02845600134936195E-02
  2.05397083686464435E-02  2.07980660950202283E-02  2.10596735615353539E-02
  2.13245716448907108E-02  2.15928017359507396E-02  2.18644057462129247E-02
  2.21394261143564343E-02  2.24179058128733261E-02  2.26998883547830654E-02
  2.29854178004314964E-02  2.32745387643754631E-02  2.35672964223537819E-02
  2.38637365183461264E-02  2.41639053717206155E-02  2.44678498844712600E-02
  2.47756175485466038E-02  2.50872564532702916E-02  2.54028152928552214E-02
  2.57223433740120938E-02  2.60458906236536447E-02  2.63735075966959436E-02
  2.67052454839575397E-02  2.70411561201582482E-02  2.73812919920183896E-02
  2.77257062464599351E-02  2.80744526989109011E-02  2.84275858417139884E-02
  2.87851608526412152E-02  2.91472336035155342E-02  2.95138606689408847E-02
  2.98850993351421970E-02  3.02610076089163335E-02  3.06416442266958626E-02
  3.10270686637267208E-02  3.14173411433613173E-02  3.18125226464686731E-02
  3.22126749209626223E-02  3.26178604914501638E-02  3.30281426690010455E-02
  3.34435855610402122E-02  3.38642540813648210E-02  3.42902139602870026E-02
  3.47215317549044653E-02  3.51582748595001340E-02  3.56005115160726374E-02
  3.60483108249993606E-02  3.65017427558333440E-02  3.69608781582363016E-02
  3.74257887730489805E-02  3.78965472435007639E-02  3.83732271265605010E-02
  3.88559029044297094E-02  3.93446499961806820E-02  3.98395447695408730E-02
  4.03406645528254434E-02  4.08480876470201509E-02  4.13618933380157927E-02
  4.18821619089969135E-02  4.24089746529862435E-02  4.29424138855467874E-02
  4.34825629576440151E-02  4.40295062686693328E-02  4.45833292796278535E-02
  4.51441185264918055E-02  4.57119616337219037E-02  4.62869473279590229E-02
  4.68691654518876635E-02  4.74587069782742149E-02  4.80556640241816060E-02
  4.86601298653627501E-02  4.92721989508352054E-02  4.98919669176387803E-02
  5.05195306057792462E-02  5.11549880733596501E-02  5.17984386119020937E-02
  5.24499827618624334E-02  5.31097223283396383E-02  5.37777603969832249E-02
  5.44542013501005256E-02  5.51391508829666768E-02  5.58327160203398107E-02
  5.65350051331836648E-02  5.72461279556009395E-02  5.79661956019794367E-02
  5.86953205843538245E-02  5.94336168299861300E-02  6.01811996991667500E-02
  6.09381860032399691E-02  6.17046940228558952E-02  6.24808435264520221E-02
  6.32667557889674687E-02  6.40625536107921473E-02  6.48683613369548107E-02
  6.56843048765520660E-02  6.65105117224219777E-02  6.73471109710652716E-02
  6.81942333428165459E-02  6.90520112022699056E-02  6.99205785789610013E-02
  7.08000711883095407E-02  7.16906264528251597E-02  7.25923835235797593E-02
  7.35054833019502668E-02  7.44300684616347741E-02  7.53662834709454832E-02
  7.63142746153824963E-02  7.72741900204907683E-02  7.82461796750053007E-02
  7.92303954542871308E-02  8.02269911440541272E-02  8.12361224644105318E-02
  8.22579470941781632E-02  8.32926246955343758E-02  8.43403169389594087E-02
  8.54011875284978045E-02  8.64754022273376416E-02  8.75631288837111083E-02
  8.86645374571212036E-02  8.97798000448983696E-02  9.09090909090909116E-02
  9.20525865036940644E-02  9.32104655022208406E-02  9.43829088256205040E-02
  9.55700996705477063E-02  9.67722235379872148E-02  9.79894682622392543E-02
  9.92220240402683640E-02  1.00470083461422555E-01  1.01733841537525571E-01
  1.03013495733347851E-01  1.04309245997461136E-01  1.05621294793480314E-01
  1.06949847131699194E-01  1.08295110601123540E-01  1.09657295401907329E-01
  1.11036614378197285E-01  1.12433283051389568E-01  1.13847519653805920E-01
  1.15279545162792763E-01  1.16729583335249215E-01  1.18197860742590116E-01
  1.19684606806147453E-01  1.21190053833018493E-01  1.22714437052364012E-01
  1.24257994652163306E-01  1.25820967816431956E-01  1.27403600762906716E-01
  1.29006140781205286E-01  1.30628838271465958E-01  1.32271946783472844E-01
  1.33935723056274159E-01  1.35620427058297355E-01  1.37326322027970321E-01
  1.39053674514852704E-01  1.40802754421284843E-01  1.42573835044560837E-01
  1.44367193119631282E-01  1.46183108862343980E-01  1.48021866013228282E-01
  1.49883751881829841E-01  1.51769057391603929E-01  1.53678077125371987E-01
  1.55611109371351392E-01  1.57568456169763310E-01  1.59550423360027144E-01
  1.61557320628548967E-01  1.63589461557109933E-01  1.65647163671864550E-01
  1.67730748492954634E-01  1.69840541584747484E-01  1.71976872606706382E-01
  1.74140075364899699E-01  1.76330487864159557E-01  1.78548452360895310E-01
  1.80794315416571982E-01  1.83068427951861540E-01  1.85371145301474166E-01
  1.87702827269680683E-01  1.90063838186532469E-01  1.92454546964788614E-01
  1.94875327157559952E-01  1.97326557016676646E-01  1.99808619551791189E-01
  2.02321902590224478E-01  2.04866798837564423E-01  2.07443705939027639E-01
  2.10053026541591331E-01  2.12695168356908382E-01  2.15370544225012867E-01
  2.18079572178827091E-01  2.20822675509480787E-01  2.23600282832450065E-01
  2.26412828154530205E-01  2.29260750941649966E-01  2.32144496187538796E-01
  2.35064514483258796E-01  2.38021262087609237E-01  2.41015200998418888E-01
  2.44046799024733835E-01  2.47116529859913198E-01  2.50224873155646121E-01
  2.53372314596895576E-01  2.56559345977790842E-01  2.59786465278469603E-01
  2.63054176742887391E-01  2.66362990957609513E-01  2.69713424931588064E-01
  2.73106002176948359E-01  2.76541252790787784E-01  2.80019713538002812E-01
  2.83541927935163196E-01  2.87108446335433531E-01  2.90719826014570415E-01
  2.94376631257996679E-01  2.98079433448970310E-01  3.01828811157868304E-01
  3.05625350232584581E-01  3.09469643890074364E-01  3.13362292809043375E-01
  3.17303905223803751E-01  3.21295097019315745E-01  3.25336491827416419E-01
  3.29428721124267354E-01  3.33572424329022399E-01  3.37768248903736745E-01
  3.42016850454537669E-01  3.46318892834060199E-01  3.50675048245179366E-01
  3.55085997346041349E-01  3.59552429356416126E-01  3.64075042165393548E-01
  3.68654542440425115E-01  3.73291645737746480E-01  3.77987076614182793E-01
  3.82741568740359972E-01  3.87555865015347445E-01  3.92430717682731300E-01
  3.97366888448159705E-01  4.02365148598357980E-01  4.07426279121642254E-01
  4.12551070829955235E-01  4.17740324482426373E-01  4.22994850910497155E-01
  4.28315471144613158E-01  4.33703016542509312E-01  4.39158328919116714E-01
  4.44682260678091468E-01  4.50275674945010307E-01  4.55939445702232993E-01
  4.61674457925461967E-01  4.67481607722026515E-01  4.73361802470895487E-01
  4.79315960964462717E-01  4.85345013552107241E-01  4.91449902285560625E-01
  4.97631581066109552E-01  5.03891015793638597E-01  5.10229184517559498E-01
  5.16647077589631576E-01  5.23145697818702793E-01  5.29726060627407236E-01
  5.36389194210819764E-01  5.43136139697120157E-01  5.49967951310268210E-01
  5.56885696534726082E-01  5.63890456282261088E-01  5.70983325060833269E-01
  5.78165411145620811E-01  5.85437836752187635E-01  5.92801738211828355E-01
  6.00258266149130360E-01  6.07808585661751999E-01  6.15453876502479402E-01
  6.23195333263562024E-01  6.31034165563366889E-01  6.38971598235390958E-01
  6.47008871519636042E-01  6.55147241256405888E-01  6.63387979082530665E-01
  6.71732372630059138E-01  6.80181725727462383E-01  6.88737358603349836E-01
  6.97400608092766161E-01  7.06172827846070716E-01  7.15055388540444703E-01
  7.24049678094070948E-01  7.33157101882988660E-01  7.42379082960695102E-01
  7.51717062280497617E-01  7.61172498920660412E-01  7.70746870312398302E-01
  7.80441672470717829E-01  7.90258420228181935E-01  8.00198647471601188E-01
  8.10263907381703397E-01  8.20455772675830031E-01  8.30775835853666211E-01
  8.41225709446080883E-01  8.51807026267085043E-01  8.62521439668956891E-01
  8.73370623800591939E-01  8.84356273869080667E-01  8.95480106404598186E-01
  9.06743859528611584E-01  9.18149293225459462E-01  9.29698189617364501E-01
  9.41392353242881397E-01  9.53233611338870079E-01  9.65223814126001001E-01
  9.77364835097850437E-01  9.89658571313649982E-01  1.00210694369469144E+00
  1.01471189732448774E+00  1.02747540175268992E+00  1.04039945130282918E+00
  1.05348606538394574E+00  1.06673728880611041E+00  1.08015519209994504E+00
  1.09374187184013993E+00  1.10749945097304292E+00  1.12143007914838777E+00
  1.13553593305516487E+00  1.14981921676174736E+00  1.16428216206027657E+00
  1.17892702881537570E+00  1.19375610531727538E+00  1.20877170863934436E+00
  1.22397618500015537E+00  1.23937191013006953E+00  1.25496128964246312E+00
  1.27074675940960424E+00  1.28673078594325530E+00  1.30291586678008620E+00
  1.31930453087190225E+00  1.33589933898081292E+00  1.35270288407935002E+00
  1.36971779175561736E+00  1.38694672062356172E+00  1.40439236273836610E+00
  1.42205744401710654E+00  1.43994472466467571E+00  1.45805699960506141E+00
  1.47639709891807791E+00  1.49496788828155114E+00  1.51377226941910403E+00
  1.53281318055354987E+00  1.55209359686598725E+00  1.57161653096069664E+00
  1.59138503333584458E+00  1.61140219286014941E+00  1.63167113725551416E+00
  1.65219503358573339E+00  1.67297708875137019E+00  1.69402054999081964E+00
  1.71532870538771665E+00  1.73690488438469703E+00  1.75875245830361981E+00
  1.78087484087236536E+00  1.80327548875821209E+00  1.82595790210796971E+00
  1.84892562509487512E+00  1.87218224647236675E+00  1.89573140013485775E+00
  1.91957676568551161E+00  1.94372206901121292E+00  1.96817108286473408E+00
  1.99292762745422469E+00  2.01799557104015115E+00  2.04337883053969316E+00
  2.06908137213879373E+00  2.09510721191187299E+00  2.12146041644933847E+00
  2.14814510349302257E+00  2.17516544257955902E+00  2.20252565569190706E+00
  2.23023001791903397E+00  2.25828285812389540E+00  2.28668855961985429E+00
  2.31545156085555393E+00  2.34457635610846005E+00  2.37406749618709023E+00
  2.40392958914207311E+00  2.43416730098619594E+00  2.46478535642344632E+00
  2.49578853958728164E+00  2.52718169478815380E+00  2.55896972727042327E+00
  2.59115760397884687E+00  2.62375035433463966E+00  2.65675307102135827E+00
  2.69017091078063464E+00  2.72400909521791146E+00  2.75827291161835975E+00
  2.79296771377299402E+00  2.82809892281524178E+00  2.86367202806799703E+00
  2.89969258790131823E+00  2.93616623060097481E+00  2.97309865524783401E+00
  3.01049563260839204E+00  3.04836300603645149E+00  3.08670669238614126E+00
  3.12553268293647513E+00  3.16484704432745900E+00  3.20465591950804907E+00
  3.24496552869599197E+00  3.28578217034972120E+00  3.32711222215254887E+00
  3.36896214200914512E+00  3.41133846905463578E+00  3.45424782467634550E+00
  3.49769691354837597E+00  3.54169252467927453E+00  3.58624153247277766E+00
  3.63135089780199394E+00  3.67702766909703938E+00  3.72327898344634578E+00
  3.77011206771189222E+00  3.81753423965836447E+00  3.86555290909661675E+00
  3.91417557904145097E+00  3.96340984688395537E+00  4.01326340557866246E+00
  4.06374404484553242E+00  4.11485965238716034E+00  4.16661821512122899E+00
  4.21902782042845192E+00  4.27209665741630484E+00  4.32583301819851851E+00
  4.38024529919080141E+00  4.43534200242276899E+00  4.49113173686638056E+00
  4.54762321978116457E+00  4.60482527807624198E+00  4.66274684968960962E+00
  4.72139698498468086E+00  4.78078484816440508E+00  4.84091971870324489E+00
  4.90181099279705190E+00  4.96346818483129404E+00  5.02590092886768058E+00
  5.08911898014946829E+00  5.15313221662580645E+00  5.21795064049511215E+00
  5.28358437976799866E+00  5.35004368984976875E+00  5.41733895514281727E+00
  5.48548069066927813E+00  5.55447954371394292E+00  5.62434629548798970E+00
  5.69509186281353763E+00  5.76672729982939458E+00  5.83926379971835896E+00
  5.91271269645609188E+00  5.98708546658215468E+00  6.06239373099320122E+00
  6.13864925675874051E+00  6.21586395895983834E+00  6.29404990255078545E+00
  6.37321930424435035E+00  6.45338453442063020E+00  6.53455811905991535E+00
  6.61675274169997696E+00  6.69998124541780360E+00  6.78425663483644659E+00
  6.86959207815697059E+00  6.95600090921599001E+00  7.04349662956917921E+00
  7.13209291060083217E+00  7.22180359566012076E+00  7.31264270222411916E+00
  7.40462442408801280E+00  7.49776313358301039E+00  7.59207338382193431E+00
  7.68756991097327269E+00  7.78426763656369669E+00  7.88218166980953683E+00
  7.98132730997772022E+00  8.08172004877621220E+00  8.18337557277470928E+00
  8.28630976585567680E+00  8.39053871169617160E+00  8.49607869628106727E+00
  8.60294621044764973E+00  8.71115795246244318E+00  8.82073083063031227E+00
  8.93168196593637020E+00  9.04402869472126802E+00  9.15778857138992031E+00
  9.27297937115451809E+00  9.38961909281189655E+00  9.50772596155583827E+00
  9.62731843182491076E+00  9.74841519018586844E+00  9.87103515825359956E+00
  9.99519749564760041E+00  1.01209216029856677E+01  1.02482271249153936E+01
  1.03771339531835487E+01  1.05076622297443336E+01  1.06398323499065377E+01
  1.07736649655203038E+01  1.09091809882041417E+01  1.10464015926122698E+01
  1.11853482197433216E+01  1.13260425802904958E+01  1.14685066580338333E+01
  1.16127627132753659E+01  1.17588332863171789E+01  1.19067412009835092E+01
  1.20565095681869696E+01  1.22081617895395933E+01  1.23617215610095563E+01
  1.25172128766235193E+01  1.26746600322159235E+01  1.28340876292251824E+01
  1.29955205785376382E+01  1.31589841043801030E+01  1.33245037482610158E+01
  1.34921053729615092E+01  1.36618151665764529E+01  1.38336596466063284E+01
  1.40076656641008110E+01  1.41838604078541000E+01  1.43622714086534060E+01
  1.45429265435806077E+01  1.47258540403680325E+01  1.49110824818092720E+01
                               </PP_R> 
 <PP_RAB type="real" size="   969" columns="3">
  1.03622950631195039E-06  1.04926366894207087E-06  1.06246178115520709E-06
  1.07582590518324307E-06  1.08935812919774995E-06  1.10306056763626010E-06
  1.11693536153265762E-06  1.13098467885171742E-06  1.14521071482785291E-06
  1.15961569230813030E-06  1.17420186209958767E-06  1.18897150332093023E-06
  1.20392692375864799E-06  1.21907046022761014E-06  1.23440447893620215E-06
  1.24993137585604356E-06  1.26565357709636743E-06  1.28157353928310507E-06
  1.29769374994273599E-06  1.31401672789097474E-06  1.33054502362633466E-06
  1.34728121972865115E-06  1.36422793126261472E-06  1.38138780618638033E-06
  1.39876352576531946E-06  1.41635780499096538E-06  1.43417339300524389E-06
  1.45221307353002783E-06  1.47047966530210020E-06  1.48897602251359092E-06
  1.50770503525794497E-06  1.52666962998150787E-06  1.54587276994078837E-06
  1.56531745566547395E-06  1.58500672542727138E-06  1.60494365571463825E-06
  1.62513136171349382E-06  1.64557299779397242E-06  1.66627175800329906E-06
  1.68723087656487135E-06  1.70845362838360487E-06  1.72994332955764975E-06
  1.75170333789653464E-06  1.77373705344583209E-06  1.79604791901842859E-06
  1.81863942073245956E-06  1.84151508855603050E-06  1.86467849685877964E-06
  1.88813326497037951E-06  1.91188305774606971E-06  1.93593158613928862E-06
  1.96028260778152533E-06  1.98493992756945425E-06  2.00990739825945547E-06
  2.03518892106962479E-06  2.06078844628933549E-06  2.08670997389648563E-06
  2.11295755418250120E-06  2.13953528838520190E-06  2.16644732932963237E-06
  2.19369788207694236E-06  2.22129120458143992E-06  2.24923160835590534E-06
  2.27752345914527195E-06  2.30617117760878883E-06  2.33517924001074903E-06
  2.36455217891991986E-06  2.39429458391776616E-06  2.42441110231557765E-06
  2.45490643988063025E-06  2.48578536157146066E-06  2.51705269228240579E-06
  2.54871331759750400E-06  2.58077218455387170E-06  2.61323430241470007E-06
  2.64610474345194746E-06  2.67938864373890126E-06  2.71309120395269721E-06
  2.74721769018693609E-06  2.78177343477452626E-06  2.81676383712086215E-06
  2.85219436454749825E-06  2.88807055314643013E-06  2.92439800864511372E-06
  2.96118240728238463E-06  2.99842949669536557E-06  3.03614509681755761E-06
  3.07433510078821265E-06  3.11300547587314628E-06  3.15216226439714620E-06
  3.19181158468808316E-06  3.23195963203291764E-06  3.27261267964573065E-06
  3.31377707964791828E-06  3.35545926406073516E-06  3.39766574581029568E-06
  3.44040311974524511E-06  3.48367806366720821E-06  3.52749733937421438E-06
  3.57186779371725057E-06  3.61679635967007576E-06  3.66229005741252993E-06
  3.70835599542744128E-06  3.75500137161134353E-06  3.80223347439917262E-06
  3.85005968390308129E-06  3.89848747306560758E-06  3.94752440882733385E-06
  3.99717815330923678E-06  4.04745646500992018E-06  4.09836720001787582E-06
  4.14991831323902646E-06  4.20211785963969501E-06  4.25497399550520489E-06
  4.30849497971432662E-06  4.36268917502973168E-06  4.41756504940469415E-06
  4.47313117730623154E-06  4.52939624105487632E-06  4.58636903218131687E-06
  4.64405845280007660E-06  4.70247351700049620E-06  4.76162335225520370E-06
  4.82151720084629608E-06  4.88216442130947707E-06  4.94357448989632823E-06
  5.00575700205500726E-06  5.06872167392954795E-06  5.13247834387802958E-06
  5.19703697400985612E-06  5.26240765174232498E-06  5.32860059137683080E-06
  5.39562613569486189E-06  5.46349475757407469E-06  5.53221706162473095E-06
  5.60180378584665004E-06  5.67226580330706514E-06  5.74361412383956216E-06
  5.81585989576437648E-06  5.88901440763036968E-06  5.96308908997884678E-06
  6.03809551712963203E-06  6.11404540898956975E-06  6.19095063288377825E-06
  6.26882320540996757E-06  6.34767529431602267E-06  6.42751922040126039E-06
  6.50836745944157440E-06  6.59023264413879679E-06  6.67312756609460505E-06
  6.75706517780919795E-06  6.84205859470518165E-06  6.92812109717686088E-06