<UPF version="2.0.1">
   <PP_INFO>
         UPF file from ATOMPAW code with following input
           F 9
           LDA-PW loggridv4 2001
           2 2 0 0 0 0
           2 1 5
           0 0 0
           c
           v
           v
           1
           1.5
           y
           2
           n
           y
           2
           n
           VANDERBILT
           2 0
           1.5
           1.5
           1.5
           1.5
  </PP_INFO>
  <!--                               -->
  <!-- END OF HUMAN READABLE SECTION -->
  <PP_HEADER generated="Generated using ATOMPAW code"
             author="   "
             date=" 07/21/2013, 19:10:18.100"
             element="F "
             pseudo_type="PAW"
             relativistic="no"
             is_ultrasoft="T"
             is_paw="T"
             is_coulomb="F"
             has_so="F"
             has_wfc="T"
             has_gipaw="T"
             paw_as_gipaw="T"
             core_correction="T"
             functional="SLA PW NOGX NOGC"
             z_valence=" 7.000"
             l_max="1"
             l_max_rho="2"
             mesh_size="  2000"
             number_of_wfc="     4"
             number_of_proj=" 4"
                                    /> 
<PP_MESH dx=" 8.0000000000000E-03" mesh="  1489" xmin="-7.0000000000000E+00" zmesh=" 9.0000000000000E+00">
 <PP_R type="real" size="  1489" columns="3">
  1.01320218394946251E-04  1.02134031052406111E-04  1.02954380322715152E-04
  1.03781318708506690E-04  1.04614899134119669E-04  1.05455174948985866E-04
  1.06302199931044227E-04  1.07156028290182739E-04  1.08016714671707844E-04
  1.08884314159841706E-04  1.09758882281247723E-04  1.10640475008584195E-04
  1.11529148764086576E-04  1.12424960423178534E-04  1.13327967318112052E-04
  1.14238227241636640E-04  1.15155798450698100E-04  1.16080739670166967E-04
  1.17013110096597067E-04  1.17952969402013901E-04  1.18900377737733823E-04
  1.19855395738213707E-04  1.20818084524931577E-04  1.21788505710298351E-04
  1.22766721401601172E-04  1.23752794204978127E-04  1.24746787229425271E-04
  1.25748764090835433E-04  1.26758788916069741E-04  1.27776926347061739E-04
  1.28803241544954590E-04  1.29837800194271247E-04  1.30880668507118417E-04
  1.31931913227424056E-04  1.32991601635209101E-04  1.34059801550893379E-04
  1.35136581339636100E-04  1.36222009915711235E-04  1.37316156746918245E-04
  1.38419091859027686E-04  1.39530885840263272E-04  1.40651609845819290E-04
  1.41781335602414596E-04  1.42920135412883293E-04  1.44068082160801915E-04
  1.45225249315154181E-04  1.46391710935032905E-04  1.47567541674379970E-04
  1.48752816786764026E-04  1.49947612130196838E-04  1.51152004171988214E-04
  1.52366069993639924E-04  1.53589887295778934E-04  1.54823534403130368E-04
  1.56067090269530127E-04  1.57320634482978138E-04  1.58584247270731992E-04
  1.59858009504441342E-04  1.61142002705323971E-04  1.62436309049382996E-04
  1.63741011372666226E-04  1.65056193176567529E-04  1.66381938633171735E-04
  1.67718332590640029E-04  1.69065460578642345E-04  1.70423408813829229E-04
  1.71792264205351808E-04  1.73172114360421769E-04  1.74563047589920640E-04
  1.75965152914049302E-04  1.77378520068027632E-04  1.78803239507835360E-04
  1.80239402416003549E-04  1.81687100707447871E-04  1.83146427035353637E-04
  1.84617474797103771E-04  1.86100338140257165E-04  1.87595111968573880E-04
  1.89101891948089231E-04  1.90620774513236167E-04  1.92151856873017308E-04
  1.93695237017226288E-04  1.95251013722719160E-04  1.96819286559736105E-04
  1.98400155898273997E-04  1.99993722914510136E-04  2.01600089597277427E-04
  2.03219358754591959E-04  2.04851634020232454E-04  2.06497019860373097E-04
  2.08155621580269259E-04  2.09827545330997151E-04  2.11512898116247568E-04
  2.13211787799173920E-04  2.14924323109295901E-04  2.16650613649457834E-04
  2.18390769902843601E-04  2.20144903240047343E-04  2.21913125926201420E-04
  2.23695551128161275E-04  2.25492292921748234E-04  2.27303466299050359E-04
  2.29129187175782097E-04  2.30969572398702659E-04  2.32824739753094493E-04
  2.34694807970301585E-04  2.36579896735328028E-04  2.38480126694498378E-04
  2.40395619463178552E-04  2.42326497633559587E-04  2.44272884782503470E-04
  2.46234905479452066E-04  2.48212685294399720E-04  2.50206350805929657E-04
  2.52216029609315148E-04  2.54241850324685495E-04  2.56283942605258061E-04
  2.58342437145635826E-04  2.60417465690171901E-04  2.62509161041401531E-04
  2.64617657068541210E-04  2.66743088716056261E-04  2.68885592012297594E-04
  2.71045304078207524E-04  2.73222363136095515E-04  2.75416908518484301E-04
  2.77629080677027390E-04  2.79859021191498079E-04  2.82106872778850506E-04
  2.84372779302353410E-04  2.86656885780797765E-04  2.88959338397777935E-04
  2.91280284511047144E-04  2.93619872661948951E-04  2.95978252584923589E-04
  2.98355575217091175E-04  3.00751992707911514E-04  3.03167658428922081E-04
  3.05602726983553576E-04  3.08057354217024563E-04  3.10531697226315974E-04
  3.13025914370224914E-04  3.15540165279499943E-04  3.18074610867057463E-04
  3.20629413338280171E-04  3.23204736201398242E-04  3.25800744277953997E-04
  3.28417603713350480E-04  3.31055481987484667E-04  3.33714547925466646E-04
  3.36394971708423908E-04  3.39096924884393620E-04  3.41820580379301262E-04
  3.44566112508028156E-04  3.47333696985567748E-04  3.50123510938271274E-04
  3.52935732915183860E-04  3.55770542899472059E-04  3.58628122319942365E-04
  3.61508654062653182E-04  3.64412322482619215E-04  3.67339313415610469E-04
  3.70289814190045724E-04  3.73264013638981759E-04  3.76262102112198292E-04
  3.79284271488381170E-04  3.82330715187401875E-04  3.85401628182697109E-04
  3.88497207013746766E-04  3.91617649798652577E-04  3.94763156246818016E-04
  3.97933927671729256E-04  4.01130167003839932E-04  4.04352078803558264E-04
  4.07599869274339168E-04  4.10873746275881337E-04  4.14173919337430016E-04
  4.17500599671188693E-04  4.20854000185832706E-04  4.24234335500141236E-04
  4.27641821956726621E-04  4.31076677635886711E-04  4.34539122369555848E-04
  4.38029377755380514E-04  4.41547667170895006E-04  4.45094215787824503E-04
  4.48669250586489340E-04  4.52273000370338740E-04  4.55905695780587272E-04
  4.59567569310982552E-04  4.63258855322679032E-04  4.66979790059243141E-04
  4.70730611661766200E-04  4.74511560184112799E-04  4.78322877608277383E-04
  4.82164807859877668E-04  4.86037596823759340E-04  4.89941492359739815E-04
  4.93876744318464040E-04  4.97843604557402604E-04  5.01842326956962871E-04
  5.05873167436745241E-04  5.09936383971914381E-04  5.14032236609717266E-04
  5.18160987486118957E-04  5.22322900842586701E-04  5.26518243042994058E-04
  5.30747282590675611E-04  5.35010290145604200E-04  5.39307538541719837E-04
  5.43639302804386224E-04  5.48005860167994621E-04  5.52407490093706922E-04
  5.56844474287340654E-04  5.61317096717398826E-04  5.65825643633243325E-04
  5.70370403583416092E-04  5.74951667434105140E-04  5.79569728387760528E-04
  5.84224882001859510E-04  5.88917426207822507E-04  5.93647661330080315E-04
  5.98415890105295496E-04  6.03222417701737069E-04  6.08067551738811977E-04
  6.12951602306752359E-04  6.17874881986461648E-04  6.22837705869519736E-04
  6.27840391578349233E-04  6.32883259286543074E-04  6.37966631739355825E-04
  6.43090834274359690E-04  6.48256194842265852E-04  6.53463044027913871E-04
  6.58711715071428911E-04  6.64002543889549192E-04  6.69335869097125173E-04
  6.74712032028790482E-04  6.80131376760807716E-04  6.85594250133089787E-04
  6.91101001771397003E-04  6.96651984109713813E-04  7.02247552412804763E-04
  7.07888064798951194E-04  7.13573882262871057E-04  7.19305368698822719E-04
  7.25082890923894603E-04  7.30906818701481092E-04  7.36777524764947950E-04
  7.42695384841486942E-04  7.48660777676163000E-04  7.54674085056153843E-04
  7.60735691835184207E-04  7.66845985958156963E-04  7.73005358485981788E-04
  7.79214203620602771E-04  7.85472918730227695E-04  7.91781904374760166E-04
  7.98141564331434706E-04  8.04552305620659359E-04  8.11014538532064738E-04
  8.17528676650763181E-04  8.24095136883817598E-04  8.30714339486924333E-04
  8.37386708091309405E-04  8.44112669730840825E-04  8.50892654869359489E-04
  8.57727097428228323E-04  8.64616434814104227E-04  8.71561107946931205E-04
  8.78561561288160190E-04  8.85618242869194716E-04  8.92731604320064491E-04
  8.99902100898330439E-04  9.07130191518221011E-04  9.14416338780003326E-04
  9.21761008999588943E-04  9.29164672238379013E-04  9.36627802333347970E-04
  9.44150876927369199E-04  9.51734377499784557E-04  9.59378789397219238E-04
  9.67084601864643951E-04  9.74852308076687001E-04  9.82682405169197368E-04
  9.90575394271061595E-04  9.98531780536275788E-04  1.00655207317627772E-03
  1.01463678549253318E-03  1.02278643490938967E-03  1.03100154300719382E-03
  1.03928263555566440E-03  1.04763024254755487E-03  1.05604489823255877E-03
  1.06452714115151540E-03  1.07307751417086319E-03  1.08169656451739772E-03
  1.09038484381327925E-03  1.09914290811135239E-03  1.10797131793071747E-03
  1.11687063829262064E-03  1.12584143875659837E-03  1.13488429345694653E-03
  1.14399978113944884E-03  1.15318848519843208E-03  1.16245099371408821E-03
  1.17178789949012852E-03  1.18119980009170509E-03  1.19068729788367341E-03
  1.20025100006912640E-03  1.20989151872827241E-03  1.21960947085759182E-03
  1.22940547840934299E-03  1.23928016833134793E-03  1.24923417260713659E-03
  1.25926812829637636E-03  1.26938267757566040E-03  1.27957846777959042E-03
  1.28985615144222468E-03  1.30021638633882040E-03  1.31065983552795242E-03
  1.32118716739392872E-03  1.33179905568958689E-03  1.34249617957939485E-03
  1.35327922368293826E-03  1.36414887811871503E-03  1.37510583854832469E-03
  1.38615080622096916E-03  1.39728448801835483E-03  1.40850759649991200E-03
  1.41982084994841918E-03  1.43122497241595379E-03  1.44272069377025130E-03
  1.45430874974139751E-03  1.46598988196893474E-03  1.47776483804930737E-03
  1.48963437158372981E-03  1.50159924222639362E-03  1.51366021573310933E-03
  1.52581806401029334E-03  1.53807356516439037E-03  1.55042750355165204E-03
  1.56288066982835771E-03  1.57543386100139366E-03  1.58808788047928601E-03
  1.60084353812359453E-03  1.61370165030076825E-03  1.62666303993436959E-03
  1.63972853655776547E-03  1.65289897636719291E-03  1.66617520227530197E-03
  1.67955806396507569E-03  1.69304841794423516E-03  1.70664712760003811E-03
  1.72035506325454442E-03  1.73417310222031456E-03  1.74810212885655918E-03
  1.76214303462573748E-03  1.77629671815061115E-03  1.79056408527175723E-03
  1.80494604910554123E-03  1.81944353010255757E-03  1.83405745610653844E-03
  1.84878876241373596E-03  1.86363839183278316E-03  1.87860729474503092E-03
  1.89369642916537473E-03  1.90890676080356829E-03  1.92423926312602824E-03
  1.93969491741813674E-03  1.95527471284704345E-03  1.97097964652497492E-03
  1.98681072357304598E-03  2.00276895718559189E-03  2.01885536869501111E-03
  2.03507098763713087E-03  2.05141685181709854E-03  2.06789400737580117E-03
  2.08450350885681793E-03  2.10124641927391395E-03  2.11812381017907093E-03
  2.13513676173106640E-03  2.15228636276460807E-03  2.16957371086001511E-03
  2.18699991241346620E-03  2.20456608270780960E-03  2.22227334598394015E-03
  2.24012283551275121E-03  2.25811569366766475E-03  2.27625307199774522E-03
  2.29453613130139620E-03  2.31296604170065385E-03  2.33154398271607447E-03
  2.35027114334222407E-03  2.36914872212377545E-03  2.38817792723221376E-03
  2.40735997654316141E-03  2.42669609771432176E-03  2.44618752826404997E-03
  2.46583551565055393E-03  2.48564131735173367E-03  2.50560620094565732E-03
  2.52573144419169062E-03  2.54601833511227012E-03  2.56646817207534022E-03
  2.58708226387744560E-03  2.60786192982749836E-03  2.62880849983121228E-03
  2.64992331447621741E-03  2.67120772511785821E-03  2.69266309396568038E-03
  2.71429079417061410E-03  2.73609220991285519E-03  2.75806873649045133E-03
  2.78022178040860605E-03  2.80255275946969138E-03  2.82506310286398908E-03
  2.84775425126115997E-03  2.87062765690244753E-03  2.89368478369362008E-03
  2.91692710729866229E-03  2.94035611523421787E-03  2.96397330696479252E-03
  2.98778019399871791E-03  3.01177829998489034E-03  3.03596916081028427E-03
  3.06035432469825000E-03  3.08493535230759891E-03  3.10971381683248929E-03
  3.13469130410310879E-03  3.15986941268716704E-03  3.18524975399220875E-03
  3.21083395236874047E-03  3.23662364521419034E-03  3.26262048307770364E-03
  3.28882612976577789E-03  3.31524226244874496E-03  3.34187057176811445E-03
  3.36871276194477100E-03  3.39577055088804850E-03  3.42304567030567511E-03
  3.45053986581460347E-03  3.47825489705273078E-03  3.50619253779151574E-03
  3.53435457604950234E-03  3.56274281420675219E-03  3.59135906912019624E-03
  3.62020517223991811E-03  3.64928296972636236E-03  3.67859432256849306E-03
  3.70814110670289769E-03  3.73792521313384696E-03  3.76794854805431734E-03
  3.79821303296799286E-03  3.82872060481223749E-03  3.85947321608206238E-03
  3.89047283495508713E-03  3.92172144541749930E-03  3.95322104739103536E-03
  3.98497365686097376E-03  4.01698130600515804E-03  4.04924604332405989E-03
  4.08176993377187998E-03  4.11455505888870792E-03  4.14760351693374205E-03
  4.18091742301958044E-03  4.21449890924757969E-03  4.24835012484432381E-03
  4.28247323629916358E-03  4.31687042750288075E-03  4.35154389988745300E-03
  4.38649587256694992E-03  4.42172858247954961E-03  4.45724428453071492E-03
  4.49304525173749997E-03  4.52913377537402483E-03  4.56551216511812217E-03
  4.60218274919915130E-03  4.63914787454701091E-03  4.67640990694234097E-03
  4.71397123116793198E-03  4.75183425116135726E-03  4.79000139016882032E-03
  4.82847509090024527E-03  4.86725781568561004E-03  4.90635204663253995E-03
  4.94576028578515986E-03  4.98548505528422555E-03  5.02552889752854674E-03
  5.06589437533769282E-03  5.10658407211602230E-03  5.14760059201801925E-03
  5.18894656011495686E-03  5.23062462256290543E-03  5.27263744677208910E-03
  5.31498772157759647E-03  5.35767815741147128E-03  5.40071148647617780E-03
  5.44409046291946704E-03  5.48781786301063505E-03  5.53189648531821586E-03
  5.57632915088908127E-03  5.62111870342899521E-03  5.66626800948460702E-03
  5.71177995862691759E-03  5.75765746363620344E-03  5.80390346068844834E-03
  5.85052090954324595E-03  5.89751279373323684E-03  5.94488212075504861E-03
  5.99263192226177997E-03  6.04076525425702518E-03  6.08928519729046158E-03
  6.13819485665500521E-03  6.18749736258554939E-03  6.23719587045930279E-03
  6.28729356099773373E-03  6.33779364047013481E-03  6.38869934089883115E-03
  6.44001392026602622E-03  6.49174066272231384E-03  6.54388287879686861E-03
  6.59644390560931628E-03  6.64942710708331386E-03  6.70283587416184087E-03
  6.75667362502421938E-03  6.81094380530488340E-03  6.86564988831389351E-03
  6.92079537525923643E-03  6.97638379547089842E-03  7.03241870662674792E-03
  7.08890369498022584E-03  7.14584237558986771E-03  7.20323839255066541E-03
  7.26109541922729737E-03  7.31941715848921995E-03  7.37820734294765065E-03
  7.43746973519446471E-03  7.49720812804299374E-03  7.55742634477076739E-03
  7.61812823936421513E-03  7.67931769676530925E-03  7.74099863312020797E-03
  7.80317499602989351E-03  7.86585076480281371E-03  7.92902995070956379E-03
  7.99271659723960887E-03  8.05691478036006312E-03  8.12162860877655920E-03
  8.18686222419620635E-03  8.25261980159265607E-03  8.31890554947330857E-03
  8.38572371014865287E-03  8.45307856000378048E-03  8.52097440977207105E-03
  8.58941560481108618E-03  8.65840652538066996E-03  8.72795158692328543E-03
  8.79805524034661321E-03  8.86872197230839827E-03  8.93995630550360743E-03
  9.01176279895388177E-03  9.08414604829930854E-03  9.15711068609255732E-03
  9.23066138209534953E-03  9.30480284357733216E-03  9.37953981561735241E-03
  9.45487708140712799E-03  9.53081946255738589E-03  9.60737181940644024E-03
  9.68453905133125938E-03  9.76232609706102761E-03  9.84073793499322218E-03
  9.91977958351223515E-03  9.99945610131055054E-03  1.00797725877125061E-02
  1.01607341830006435E-02  1.02423460687446899E-02  1.03246134681332057E-02
  1.04075416463078260E-02  1.04911359107002569E-02  1.05754016113719547E-02
  1.06603441413565259E-02  1.07459689370048815E-02  1.08322814783331708E-02
  1.09192872893735006E-02  1.10069919385274752E-02  1.10954010389225748E-02
  1.11845202487714061E-02  1.12743552717338158E-02  1.13649118572819383E-02
  1.14561958010681569E-02  1.15482129452960346E-02  1.16409691790942092E-02
  1.17344704388933057E-02  1.18287227088058680E-02  1.19237320210093360E-02
  1.20195044561321254E-02  1.21160461436427766E-02  1.22133632622422363E-02
  1.23114620402593189E-02  1.24103487560492977E-02  1.25100297383957393E-02
  1.26105113669155375E-02  1.27118000724672151E-02  1.28139023375625008E-02
  1.29168246967812129E-02  1.30205737371894698E-02  1.31251560987612724E-02
  1.32305784748034602E-02  1.33368476123840798E-02  1.34439703127642134E-02
  1.35519534318332500E-02  1.36608038805476669E-02  1.37705286253733353E-02
  1.38811346887313791E-02  1.39926291494476066E-02  1.41050191432055584E-02
  1.42183118630031993E-02  1.43325145596132665E-02  1.44476345420473228E-02
  1.45636791780235433E-02  1.46806558944382326E-02  1.47985721778411770E-02
  1.49174355749147614E-02  1.50372536929569665E-02  1.51580342003682488E-02
  1.52797848271423054E-02  1.54025133653608124E-02  1.55262276696921039E-02
  1.56509356578938899E-02  1.57766453113199756E-02  1.59033646754310892E-02
  1.60311018603097981E-02  1.61598650411795206E-02  1.62896624589277950E-02
  1.64205024206336564E-02  1.65523933000993155E-02  1.66853435383860736E-02
  1.68193616443545677E-02  1.69544561952093206E-02  1.70906358370477018E-02
  1.72279092854132690E-02  1.73662853258535720E-02  1.75057728144824391E-02
  1.76463806785467463E-02  1.77881179169977928E-02  1.79309936010672161E-02
  1.80750168748475687E-02  1.82201969558775274E-02  1.83665431357318415E-02
  1.85140647806159679E-02  1.86627713319655296E-02  1.88126723070505819E-02
  1.89637772995846880E-02  1.91160959803389520E-02  1.92696380977609300E-02
  1.94244134785985512E-02  1.95804320285290177E-02  1.97377037327927767E-02
  1.98962386568325850E-02  2.00560469469376959E-02  2.02171388308932214E-02
  2.03795246186347229E-02  2.05432147029080414E-02  2.07082195599344460E-02
  2.08745497500811075E-02  2.10422159185369682E-02  2.12112287959940402E-02
  2.13815991993341753E-02  2.15533380323213314E-02  2.17264562862994441E-02
  2.19009650408958575E-02  2.20768754647304374E-02  2.22541988161303467E-02
  2.24329464438506078E-02  2.26131297878004039E-02  2.27947603797752502E-02
  2.29778498441950280E-02  2.31624098988479597E-02  2.33484523556405366E-02
  2.35359891213534969E-02  2.37250321984038559E-02  2.39155936856130756E-02
  2.41076857789813831E-02  2.43013207724683163E-02  2.44965110587795597E-02
  2.46932691301600532E-02  2.48916075791935365E-02  2.50915390996084425E-02
  2.52930764870903171E-02  2.54962326401007543E-02  2.57010205607028884E-02
  2.59074533553935449E-02  2.61155442359420446E-02  2.63253065202357639E-02
  2.65367536331325045E-02  2.67498991073196607E-02  2.69647565841803424E-02
  2.71813398146664026E-02  2.73996626601785108E-02  2.76197390934533153E-02
  2.78415831994576583E-02  2.80652091762900423E-02  2.82906313360892954E-02
  2.85178641059506480E-02  2.87469220288488897E-02  2.89778197645692882E-02
  2.92105720906457346E-02  2.94451939033065387E-02  2.96817002184278089E-02
  2.99201061724944338E-02  3.01604270235688449E-02  3.04026781522675552E-02
  3.06468750627454760E-02  3.08930333836882308E-02  3.11411688693123828E-02
  3.13912974003737258E-02  3.16434349851835994E-02  3.18975977606335143E-02
  3.21538019932278429E-02  3.24120640801249249E-02  3.26724005501864770E-02
  3.29348280650354486E-02  3.31993634201223561E-02  3.34660235458002220E-02
  3.37348255084081242E-02  3.40057865113634061E-02  3.42789238962627404E-02
  3.45542551439920048E-02  3.48317978758450331E-02  3.51115698546513866E-02
  3.53935889859132158E-02  3.56778733189511837E-02  3.59644410480596324E-02
  3.62533105136710540E-02  3.65445002035298325E-02  3.68380287538755194E-02
  3.71339149506355326E-02  3.74321777306274514E-02  3.77328361827710124E-02
  3.80359095493097710E-02  3.83414172270426373E-02  3.86493787685652651E-02
  3.89598138835214394E-02  3.92727424398644637E-02  3.95881844651287604E-02
  3.99061601477116168E-02  4.02266898381652693E-02  4.05497940504993062E-02
  4.08754934634935896E-02  4.12038089220217382E-02  4.15347614383851649E-02
  4.18683721936578754E-02  4.22046625390420788E-02  4.25436539972346706E-02
  4.28853682638046865E-02  4.32298272085818169E-02  4.35770528770561133E-02
  4.39270674917888737E-02  4.42798934538349079E-02  4.46355533441762306E-02
  4.49940699251672183E-02  4.53554661419914087E-02  4.57197651241300698E-02
  4.60869901868423831E-02  4.64571648326577089E-02  4.68303127528797367E-02
  4.72064578291027381E-02  4.75856241347399622E-02  4.79678359365644166E-02
  4.83531176962618617E-02  4.87414940719964329E-02  4.91329899199887468E-02
  4.95276302961067047E-02  4.99254404574690780E-02  5.03264458640619791E-02
  5.07306721803683150E-02  5.11381452770102995E-02  5.15488912324051987E-02
  5.19629363344343703E-02  5.23803070821256683E-02  5.28010301873493987E-02
  5.32251325765279101E-02  5.36526413923588755E-02  5.40835839955524228E-02
  5.45179879665822487E-02  5.49558811074507894E-02  5.53972914434685201E-02
  5.58422472250476171E-02  5.62907769295099766E-02  5.67429092629097784E-02
  5.71986731618706959E-02  5.76580977954378321E-02  5.81212125669445523E-02
  5.85880471158943053E-02  5.90586313198575713E-02  5.95329952963840198E-02
  6.00111694049300856E-02  6.04931842488019289E-02  6.09790706771140695E-02
  6.14688597867637868E-02  6.19625829244212639E-02  6.24602716885358511E-02
  6.29619579313583227E-02  6.34676737609794483E-02  6.39774515433849805E-02
  6.44913239045269565E-02  6.50093237324119166E-02  6.55314841792056374E-02
  6.60578386633549619E-02  6.65884208717265197E-02  6.71232647617627798E-02
  6.76624045636552429E-02  6.82058747825352585E-02  6.87537102006823553E-02
  6.93059458797502664E-02  6.98626171630109677E-02  7.04237596776165903E-02
  7.09894093368796109E-02  7.15596023425712907E-02  7.21343751872386418E-02
  7.27137646565398782E-02  7.32978078315988241E-02  7.38865420913780296E-02
  7.44800051150710796E-02  7.50782348845140529E-02  7.56812696866163842E-02
  7.62891481158112783E-02  7.69019090765256513E-02  7.75195917856701666E-02
  7.81422357751490465E-02  7.87698808943901319E-02  7.94025673128952447E-02
  8.00403355228112429E-02  8.06832263415211970E-02  8.13312809142569398E-02
  8.19845407167323348E-02  8.26430475577977081E-02  8.33068435821156805E-02
  8.39759712728583574E-02  8.46504734544263754E-02  8.53303932951895577E-02
  8.60157743102498012E-02  8.67066603642260153E-02  8.74030956740614734E-02
  8.81051248118537300E-02  8.88127927077072138E-02  8.95261446526088300E-02
  9.02452263013265310E-02  9.09700836753312980E-02  9.17007631657424660E-02
  9.24373115362968345E-02  9.31797759263415376E-02  9.39282038538509639E-02
  9.46826432184679212E-02  9.54431423045692534E-02  9.62097497843560912E-02
  9.69825147209688043E-02  9.77614865716270737E-02  9.85467151907952615E-02
  9.93382508333730263E-02  1.00136144157911638E-01  1.00940446229856234E-01
  1.01751208524813952E-01  1.02568482931848420E-01  1.03392321756800631E-01
  1.04222777725636609E-01  1.05059903987821793E-01  1.05903754119722748E-01
  1.06754382128035910E-01  1.07611842453244178E-01  1.08476189973101031E-01
  1.09347480006142792E-01  1.10225768315228956E-01  1.11111111111111105E-01
  1.12003565056030388E-01  1.12903187267343885E-01  1.13810035321180170E-01
  1.14724167256124276E-01  1.15645641576932023E-01  1.16574517258274515E-01
  1.17510853748512362E-01  1.18454710973500604E-01  1.19406149340423762E-01
  1.20365229741662069E-01  1.21332013558688612E-01  1.22306562665997667E-01
  1.23288939435064748E-01  1.24279206738338380E-01  1.25277427953263965E-01
  1.26283666966340052E-01  1.27297988177206889E-01  1.28320456502768188E-01
  1.29351137381345821E-01  1.30390096776867831E-01  1.31437401183090108E-01
  1.32493117627852208E-01  1.33557313677366840E-01  1.34630057440544515E-01
  1.35711417573352228E-01  1.36801463283207553E-01  1.37900264333407990E-01
  1.39007891047595838E-01  1.40124414314258872E-01  1.41249905591267211E-01
  1.42384436910446832E-01  1.43528080882189379E-01  1.44680910700099363E-01
  1.45843000145678720E-01  1.47014423593048588E-01  1.48195256013709420E-01
  1.49385572981339254E-01  1.50585450676630234E-01  1.51794965892164485E-01
  1.53014196037328604E-01  1.54243219143268079E-01  1.55482113867881189E-01
  1.56730959500853195E-01  1.57989835968730868E-01  1.59258823840037866E-01
  1.60538004330431083E-01  1.61827459307898491E-01  1.63127271297998866E-01
  1.64437523489143200E-01  1.65758299737918974E-01  1.67089684574456943E-01
  1.68431763207841034E-01  1.69784621531561958E-01  1.71148346129014167E-01
  1.72523024279037401E-01  1.73908743961502466E-01  1.75305593862942061E-01
  1.76713663382226660E-01  1.78133042636286071E-01  1.79563822465877126E-01
  1.81006094441397231E-01  1.82459950868745113E-01  1.83925484795228411E-01
  1.85402790015518626E-01  1.86891961077654128E-01  1.88393093289091179E-01
  1.89906282722803715E-01  1.91431626223432017E-01  1.92969221413480718E-01
  1.94519166699566870E-01  1.96081561278717814E-01  1.97656505144719913E-01
  1.99244099094518179E-01  2.00844444734667255E-01  2.02457644487834432E-01
  2.04083801599354520E-01  2.05723020143837698E-01  2.07375405031830384E-01
  2.09041062016529389E-01  2.10720097700550252E-01  2.12412619542749925E-01
  2.14118735865104021E-01  2.15838555859639486E-01  2.17572189595422988E-01
  2.19319748025605221E-01  2.21081342994522589E-01  2.22857087244854202E-01
  2.24647094424838212E-01  2.26451479095545083E-01  2.28270356738209695E-01
  2.30103843761621962E-01  2.31952057509577314E-01  2.33815116268386414E-01
  2.35693139274445684E-01  2.37586246721868677E-01  2.39494559770178167E-01
  2.41418200552060536E-01  2.43357292181182516E-01  2.45311958760070198E-01
  2.47282325388051949E-01  2.49268518169264319E-01  2.51270664220723416E-01
  2.53288891680459816E-01  2.55323329715719916E-01  2.57374108531232382E-01
  2.59441359377541425E-01  2.61525214559406693E-01  2.63625807444271387E-01
  2.65743272470796876E-01  2.67877745157467761E-01  2.70029362111264493E-01
  2.72198261036406541E-01  2.74384580743165518E-01  2.76588461156748844E-01
  2.78810043326255252E-01  2.81049469433701959E-01  2.83306882803124160E-01
  2.85582427909748027E-01  2.87876250389237087E-01  2.90188497047013105E-01
  2.92519315867651286E-01  2.94868856024351811E-01  2.97237267888486700E-01
  2.99624703039223672E-01  3.02031314273227214E-01  3.04457255614438149E-01
  3.06902682323929532E-01  3.09367750909846473E-01  3.11852619137418852E-01
  3.14357446039062460E-01  3.16882391924552975E-01  3.19427618391289914E-01
  3.21993288334634920E-01  3.24579565958341199E-01  3.27186616785058226E-01
  3.29814607666930049E-01  3.32463706796268965E-01  3.35134083716324582E-01
  3.37825909332130137E-01  3.40539355921445019E-01  3.43274597145775962E-01
  3.46031808061496138E-01  3.48811165131044154E-01  3.51612846234222232E-01
  3.54437030679576104E-01  3.57283899215875556E-01  3.60153634043677395E-01
  3.63046418826991291E-01  3.65962438705029647E-01  3.68901880304060570E-01
  3.71864931749350314E-01  3.74851782677201595E-01  3.77862624247094603E-01
  3.80897649153916051E-01  3.83957051640297364E-01  3.87041027509040625E-01
  3.90149774135655436E-01  3.93283490480985654E-01  3.96442377103948362E-01
  3.99626636174364336E-01  4.02836471485902348E-01  4.06072088469116632E-01
  4.09333694204599807E-01  4.12621497436230888E-01  4.15935708584540376E-01
  4.19276539760171596E-01  4.22644204777461563E-01  4.26038919168119423E-01
  4.29460900195026418E-01  4.32910366866134710E-01  4.36387539948490277E-01
  4.39892641982355670E-01  4.43425897295459115E-01  4.46987532017344980E-01
  4.50577774093852912E-01  4.54196853301699510E-01  4.57845001263191054E-01
  4.61522451461040817E-01  4.65229439253318278E-01  4.68966201888505629E-01
  4.72732978520688851E-01  4.76530010224856471E-01  4.80357540012335271E-01
  4.84215812846336358E-01  4.88105075657639886E-01  4.92025577360391431E-01
  4.95977568868040064E-01  4.99961303109389299E-01  5.03977035044792299E-01
  5.08025021682461886E-01  5.12105522094926213E-01  5.16218797435602839E-01
  5.20365110955519294E-01  5.24544728020154283E-01  5.28757916126428529E-01
  5.33004944919816870E-01  5.37286086211614000E-01  5.41601613996321563E-01
  5.45951804469193003E-01  5.50336936043901437E-01  5.54757289370366391E-01
  5.59213147352707662E-01  5.63704795167358941E-01  5.68232520281311659E-01
  5.72796612470520383E-01  5.77397363838441313E-01  5.82035068834734215E-01
  5.86710024274100017E-01  5.91422529355284499E-01  5.96172885680219311E-01
  6.00961397273332754E-01  6.05788370600999215E-01  6.10654114591161479E-01
  6.15558940653093578E-01  6.20503162697339739E-01  6.25487097155796312E-01
  6.30511063001972016E-01  6.35575381771393610E-01  6.40680377582193206E-01
  6.45826377155843012E-01  6.51013709838074495E-01  6.56242707619947629E-01
  6.61513705159107568E-01  6.66827039801193511E-01  6.72183051601438875E-01
  6.77582083346424557E-01  6.83024480576027382E-01  6.88510591605525302E-01
  6.94040767547899451E-01  6.99615362336295177E-01  7.05234732746684134E-01
  7.10899238420688251E-01  7.16609241888606752E-01  7.22365108592607941E-01
  7.28167206910128151E-01  7.34015908177437670E-01  7.39911586713416392E-01
  7.45854619843500544E-01  7.51845387923841479E-01  7.57884274365638877E-01
  7.63971665659688548E-01  7.70107951401108659E-01  7.76293524314283889E-01
  7.82528780277989333E-01  7.88814118350737670E-01  7.95149940796308186E-01
  8.01536653109502728E-01  8.07974664042086732E-01  8.14464385628960064E-01
  8.21006233214516712E-01  8.27600625479237961E-01  8.34247984466476522E-01