<UPF version="2.0.1">
   <PP_INFO>
         UPF file from ATOMPAW code with following input
           Li 3
           LDA-PW loggridv4 2001
           2 0 0 0 0 0
           2 0 1
           0 0 0
           v
           v
           1
           1.6
           n
           y
           0.0
           n
           VANDERBILT
           2 0
           1.4
           1.6
           1.6
  </PP_INFO>
  <!--                               -->
  <!-- END OF HUMAN READABLE SECTION -->
  <PP_HEADER generated="Generated using ATOMPAW code"
             author="   "
             date=" 07/21/2013, 19:06:50.201"
             element="Li"
             pseudo_type="PAW"
             relativistic="no"
             is_ultrasoft="T"
             is_paw="T"
             is_coulomb="F"
             has_so="F"
             has_wfc="T"
             has_gipaw="T"
             paw_as_gipaw="T"
             core_correction="T"
             functional="SLA PW NOGX NOGC"
             z_valence=" 3.000"
             l_max="1"
             l_max_rho="2"
             mesh_size="  2000"
             number_of_wfc="     3"
             number_of_proj=" 3"
                                    /> 
<PP_MESH dx=" 8.0000000000000E-03" mesh="  1351" xmin="-7.0000000000000E+00" zmesh=" 3.0000000000000E+00">
 <PP_R type="real" size="  1351" columns="3">
  3.03960655184838766E-04  3.06402093157218320E-04  3.08863140968145455E-04
  3.11343956125520070E-04  3.13844697402358979E-04  3.16365524846957599E-04
  3.18906599793132681E-04  3.21468084870548244E-04  3.24050144015123546E-04
  3.26652942479525117E-04  3.29276646843743156E-04  3.31921425025752598E-04
  3.34587446292259727E-04  3.37274881269535628E-04  3.39983901954336171E-04
  3.42714681724909907E-04  3.45467395352094288E-04  3.48242219010500887E-04
  3.51039330289791215E-04  3.53858908206041703E-04  3.56701133213201441E-04
  3.59566187214641108E-04  3.62454253574794744E-04  3.65365517130895054E-04
  3.68300164204803462E-04  3.71258382614934434E-04  3.74240361688275814E-04
  3.77246292272506300E-04  3.80276366748209197E-04  3.83330779041185217E-04
  3.86409724634863771E-04  3.89513400582813796E-04  3.92642005521355250E-04
  3.95795739682272194E-04  3.98974804905627303E-04  4.02179404652680138E-04
  4.05409744018908299E-04  4.08666029747133759E-04  4.11948470240754681E-04
  4.15257275577083057E-04  4.18592657520789788E-04  4.21954829537457869E-04
  4.25344006807243814E-04  4.28760406238649905E-04  4.32204246482405718E-04
  4.35675747945462515E-04  4.39175132805098714E-04  4.42702625023139911E-04
  4.46258450360292132E-04  4.49842836390590515E-04  4.53456012515964641E-04
  4.57098209980919771E-04  4.60769661887336802E-04  4.64470603209391104E-04
  4.68201270808590354E-04  4.71961903448934442E-04  4.75752741812195947E-04
  4.79574028513324053E-04  4.83426008115971941E-04  4.87308927148148989E-04
  4.91223034117998733E-04  4.95168579529702588E-04  4.99145815899515260E-04
  5.03154997771920113E-04  5.07196381735927062E-04  5.11270226441487715E-04
  5.15376792616055479E-04  5.19516343081265360E-04  5.23689142769761975E-04
  5.27895458742147906E-04  5.32135560204082870E-04  5.36409718523506054E-04
  5.40718207248010673E-04  5.45061302122343641E-04  5.49439281106060937E-04
  5.53852424391311341E-04  5.58301014420771523E-04  5.62785335905721640E-04
  5.67305675844267747E-04  5.71862323539708501E-04  5.76455570619051924E-04
  5.81085711051678865E-04  5.85753041168157480E-04  5.90457859679208315E-04
  5.95200467694821937E-04  5.99981168743530407E-04  6.04800268791832281E-04
  6.09658076263775903E-04  6.14554902060697309E-04  6.19491059581119235E-04
  6.24466864740807776E-04  6.29482635992991454E-04  6.34538694348742703E-04
  6.39635363397521761E-04  6.44772969327887650E-04  6.49951840948373503E-04
  6.55172309708530829E-04  6.60434709720142030E-04  6.65739377778604233E-04
  6.71086653384483770E-04  6.76476878765244673E-04  6.81910398897151077E-04
  6.87387561527346238E-04  6.92908717196107950E-04  6.98474219259283507E-04
  7.04084423910904754E-04  7.09739690205984084E-04  7.15440380083495081E-04
  7.21186858389535630E-04  7.26979492900678708E-04  7.32818654347510410E-04
  7.38704716438356199E-04  7.44638055883199159E-04  7.50619052417788972E-04
  7.56648088827945389E-04  7.62725550974056431E-04  7.68851827815774237E-04
  7.75027311436907369E-04  7.81252397070515757E-04  7.87527483124204702E-04
  7.93852971205623575E-04  8.00229266148168674E-04  8.06656776036892838E-04
  8.13135912234622571E-04  8.19667089408286490E-04  8.26250725555452794E-04
  8.32887242031082171E-04  8.39577063574494290E-04  8.46320618336551464E-04
  8.53118337907060229E-04  8.59970657342393348E-04  8.66878015193333750E-04
  8.73840853533141486E-04  8.80859617985846853E-04  8.87934757754770768E-04
  8.95066725651273471E-04  9.02255978123734596E-04  9.09502975286766244E-04
  9.16808180950660673E-04  9.24172062651073688E-04  9.31595091678947868E-04
  9.39077743110674633E-04  9.46620495838499721E-04  9.54223832601172280E-04
  9.61888240014840512E-04  9.69614208604194726E-04  9.77402232833862045E-04
  9.85252811140051440E-04  9.93166445962454002E-04  1.00114364377639994E-03
  1.00918491512527178E-03  1.01729077465318092E-03  1.02546174113790373E-03
  1.03369833752408441E-03  1.04200109095670319E-03  1.05037053281481388E-03
  1.05880719874555163E-03  1.06731162869841607E-03  1.07588436695982715E-03
  1.08452596218795955E-03  1.09323696744785775E-03  1.10201794024683141E-03
  1.11086944257013723E-03  1.11979204091694528E-03  1.12878630633659487E-03
  1.13785281446514351E-03  1.14699214556220563E-03  1.15620488454809133E-03
  1.16549162104124019E-03  1.17485294939595778E-03  1.18428946874045405E-03
  1.19380178301518782E-03  1.20339050101151974E-03  1.21305623641067479E-03
  1.22279960782301750E-03  1.23262123882764401E-03  1.24252175801228999E-03
  1.25250179901356608E-03  1.26256200055749812E-03  1.27270300650042371E-03
  1.28292546587017975E-03  1.29323003290766013E-03  1.30361736710866744E-03
  1.31408813326614154E-03  1.32464300151268507E-03  1.33528264736347351E-03
  1.34600775175946802E-03  1.35681900111101622E-03  1.36771708734176171E-03
  1.37870270793294760E-03  1.38977656596803710E-03  1.40093937017772932E-03
  1.41219183498529871E-03  1.42353468055233840E-03  1.43496863282483226E-03
  1.44649442357963295E-03  1.45811279047127797E-03  1.46982447707921945E-03
  1.48163023295539223E-03  1.49353081367220781E-03  1.50552698087088872E-03
  1.51761950231023572E-03  1.52980915191574304E-03  1.54209670982915180E-03
  1.55448296245835698E-03  1.56696870252776010E-03  1.57955472912898218E-03
  1.59224184777202672E-03  1.60503087043681260E-03  1.61792261562515951E-03
  1.63091790841315867E-03  1.64401758050398386E-03  1.65722247028112055E-03
  1.67053342286202174E-03  1.68395129015219626E-03  1.69747693089973019E-03
  1.71111121075024838E-03  1.72485500230231542E-03  1.73870918516328137E-03
  1.75267464600557831E-03  1.76675227862346730E-03  1.78094298399024084E-03
  1.79524767031588660E-03  1.80966725310521132E-03  1.82420265521643604E-03
  1.83885480692025718E-03  1.85362464595938484E-03  1.86851311760855942E-03
  1.88352117473504759E-03  1.89864977785962901E-03  1.91389989521806737E-03
  1.92927250282307907E-03  1.94476858452679777E-03  1.96038913208374183E-03
  1.97613514521428673E-03  1.99200763166864758E-03  2.00800760729137563E-03
  2.02413609608637123E-03  2.04039413028242337E-03  2.05678275039926925E-03
  2.07330300531419079E-03  2.08995595232914144E-03  2.10674265723841429E-03
  2.12366419439685358E-03  2.14072164678861306E-03  2.15791610609646816E-03
  2.17524867277168370E-03  2.19272045610444328E-03  2.21033257429484363E-03
  2.22808615452446072E-03  2.24598233302848900E-03  2.26402225516846153E-03
  2.28220707550555240E-03  2.30053795787447078E-03  2.31901607545794515E-03
  2.33764261086180820E-03  2.35641875619068330E-03  2.37534571312428061E-03
  2.39442469299430390E-03  2.41365691686197797E-03  2.43304361559619443E-03
  2.45258602995228944E-03  2.47228541065145279E-03  2.49214301846077289E-03
  2.51216012427392821E-03  2.53233800919252247E-03  2.55267796460807847E-03
  2.57318129228468508E-03  2.59384930444231257E-03  2.61468332384079362E-03
  2.63568468386448035E-03  2.65685472860758415E-03  2.67819481296019358E-03
  2.69970630269499154E-03  2.72139057455466314E-03  2.74324901634001020E-03
  2.76528302699876683E-03  2.78749401671513726E-03  2.80988340700004391E-03
  2.83245263078210760E-03  2.85520313249935367E-03  2.87813636819165761E-03
  2.90125380559393175E-03  2.92455692423006100E-03  2.94804721550759189E-03
  2.97172618281318435E-03  2.99559534160882780E-03  3.01965621952883338E-03
  3.04391035647759954E-03  3.06835930472816902E-03  3.09300462902158124E-03
  3.11784790666699320E-03  3.14289072764266505E-03  3.16813469469767609E-03
  3.19358142345454619E-03  3.21923254251258936E-03  3.24508969355219315E-03
  3.27115453143983796E-03  3.29742872433405739E-03  3.32391395379215242E-03
  3.35061191487786214E-03  3.37752431626979488E-03  3.40465288037083980E-03
  3.43199934341834609E-03  3.45956545559529581E-03  3.48735298114226508E-03
  3.51536369847038578E-03  3.54359940027511528E-03  3.57206189365102044E-03
  3.60075300020737919E-03  3.62967455618481679E-03  3.65882841257277568E-03
  3.68821643522802877E-03  3.71784050499404358E-03  3.74770251782140977E-03
  3.77780438488912887E-03  3.80814803272698120E-03  3.83873540333877147E-03
  3.86956845432667382E-03  3.90064915901646098E-03  3.93197950658385770E-03
  3.96356150218178573E-03  3.99539716706876023E-03  4.02748853873818435E-03
  4.05983767104881477E-03  4.09244663435614532E-03  4.12531751564497364E-03
  4.15845241866290728E-03  4.19185346405506493E-03  4.22552278949973621E-03
  4.25946254984525732E-03  4.29367491724786093E-03  4.32816208131075412E-03
  4.36292624922419211E-03  4.39796964590680444E-03  4.43329451414792210E-03
  4.46890311475118922E-03  4.50479772667918086E-03  4.54098064719932800E-03
  4.57745419203087981E-03  4.61422069549317134E-03  4.65128251065495633E-03
  4.68864200948507313E-03  4.72630158300418098E-03  4.76426364143785804E-03
  4.80253061437078358E-03  4.84110495090230453E-03  4.87998911980310878E-03
  4.91918560967329662E-03  4.95869692910157894E-03  4.99852560682590569E-03
  5.03867419189522707E-03  5.07914525383270591E-03  5.11994138280011477E-03
  5.16106518976363303E-03  5.20251930666094323E-03  5.24430638656967710E-03
  5.28642910387721199E-03  5.32889015445183346E-03  5.37169225581527170E-03
  5.41483814731662325E-03  5.45833059030767249E-03  5.50217236831961488E-03
  5.54636628724120787E-03  5.59091517549834948E-03  5.63582188423509319E-03
  5.68108928749612441E-03  5.72672028241070444E-03  5.77271778937808473E-03
  5.81908475225441021E-03  5.86582413854113121E-03  5.91293893957492434E-03
  5.96043217071913836E-03  6.00830687155677612E-03  6.05656610608503333E-03
  6.10521296291139260E-03  6.15425055545129607E-03  6.20368202212740350E-03
  6.25351052657045423E-03  6.30373925782174230E-03  6.35437143053721194E-03
  6.40541028519319919E-03  6.45685908829382333E-03  6.50872113258004533E-03
  6.56099973724039859E-03  6.61369824812342924E-03  6.66682003795182002E-03
  6.72036850653825318E-03  6.77434708100299512E-03  6.82875921599323480E-03
  6.88360839390418904E-03  6.93889812510196154E-03  6.99463194814822341E-03
  7.05081343002667265E-03  7.10744616637132634E-03  7.16453378169664128E-03
  7.22207992962948381E-03  7.28008829314296529E-03  7.33856258479214946E-03
  7.39750654695166179E-03  7.45692395205520015E-03  7.51681860283697195E-03
  7.57719433257507142E-03  7.63805500533681122E-03  7.69940451622602023E-03
  7.76124679163233636E-03  7.82358578948249596E-03  7.88642549949363642E-03
  7.94976994342865180E-03  8.01362317535357464E-03  8.07798928189704113E-03
  8.14287238251184230E-03  8.20827662973856557E-03  8.27420620947135442E-03
  8.34066534122581728E-03  8.40765827840907372E-03  8.47518930859196724E-03
  8.54326275378347946E-03  8.61188297070734216E-03  8.68105435108086111E-03
  8.75078132189598644E-03  8.82106834570265362E-03  8.89191992089437798E-03
  8.96334058199615459E-03  9.03533489995467058E-03  9.10790748243085237E-03
  9.18106297409474956E-03  9.25480605692279718E-03  9.32914145049746832E-03
  9.40407391230932595E-03  9.47960823806150155E-03  9.55574926197662669E-03
  9.63250185710622098E-03  9.70987093564257102E-03  9.78786144923311091E-03
  9.86647838929733366E-03  9.94572678734623530E-03  1.00256117153043438E-02
  1.01061382858343134E-02  1.01873116526641459E-02  1.02691370109170253E-02
  1.03516195974438108E-02  1.04347646911581923E-02  1.05185776133745468E-02
  1.06030637281485079E-02  1.06882284426202557E-02  1.07740772073605887E-02
  1.08606155167197543E-02  1.09478489091790875E-02  1.10357829677054792E-02
  1.11244233201086926E-02  1.12137756394015409E-02  1.13038456441629520E-02
  1.13946390989039786E-02  1.14861618144367125E-02  1.15784196482461871E-02
  1.16714185048652618E-02  1.17651643362524979E-02  1.18596631421731061E-02
  1.19549209705829204E-02  1.20509439180154759E-02  1.21477381299721788E-02
  1.22453098013156399E-02  1.23436651766661229E-02  1.24428105508012279E-02
  1.25427522690587396E-02  1.26434967277427382E-02  1.27450503745329697E-02
  1.28474197088974899E-02  1.29506112825086422E-02  1.30546316996623599E-02
  1.31594876177008480E-02  1.32651857474386497E-02  1.33717328535921456E-02
  1.34791357552124999E-02  1.35874013261220745E-02  1.36965364953543656E-02
  1.38065482475974530E-02  1.39174436236410345E-02  1.40292297208270220E-02
  1.41419136935037951E-02  1.42555027534840718E-02  1.43700041705064618E-02
  1.44854252727007349E-02  1.46017734470568292E-02  1.47190561398976207E-02
  1.48372808573554796E-02  1.49564551658526775E-02  1.50765866925856393E-02
  1.51976831260130785E-02  1.53197522163480686E-02  1.54428017760540586E-02
  1.55668396803448697E-02  1.56918738676887180E-02  1.58179123403162682E-02
  1.59449631647327894E-02  1.60730344722344147E-02  1.62021344594285334E-02
  1.63322713887583994E-02  1.64634535890319060E-02  1.65956894559546493E-02
  1.67289874526672447E-02  1.68633561102869874E-02  1.69988040284538219E-02
  1.71353398758807528E-02  1.72729723909086121E-02  1.74117103820653450E-02
  1.75515627286297361E-02  1.76925383811997114E-02  1.78346463622651476E-02
  1.79778957667853408E-02  1.81222957627710755E-02  1.82678555918713847E-02
  1.84145845699650139E-02  1.85624920877566491E-02  1.87115876113779084E-02
  1.88618806829932012E-02  1.90133809214104062E-02  1.91660980226964935E-02
  1.93200417607980769E-02  1.94752219881669415E-02  1.96316486363906050E-02
  1.97893317168279480E-02  1.99482813212499416E-02  2.01085076224855226E-02
  2.02700208750726564E-02  2.04328314159146519E-02  2.05969496649416814E-02
  2.07623861257777084E-02  2.09291513864126970E-02  2.10972561198802429E-02
  2.12667110849406767E-02  2.14375271267696031E-02  2.16097151776519954E-02
  2.17832862576818921E-02  2.19582514754676598E-02  2.21346220288429520E-02
  2.23124092055833924E-02  2.24916243841289804E-02  2.26722790343123030E-02
  2.28543847180926463E-02  2.30379530902959269E-02  2.32229958993606239E-02
  2.34095249880896805E-02  2.35975522944084394E-02  2.37870898521286948E-02
  2.39781497917188301E-02  2.41707443410801893E-02  2.43648858263296776E-02
  2.45605866725886191E-02  2.47578594047779682E-02  2.49567166484199292E-02
  2.51571711304459621E-02  2.53592356800113432E-02  2.55629232293162166E-02
  2.57682468144332620E-02  2.59752195761420064E-02  2.61838547607698563E-02
  2.63941657210398396E-02  2.66061659169251931E-02  2.68198689165108223E-02
  2.70352883968616453E-02  2.72524381448979273E-02  2.74713320582776720E-02
  2.76919841462860451E-02  2.79144085307319982E-02  2.81386194468520590E-02
  2.83646312442213840E-02  2.85924583876721594E-02  2.88221154582193190E-02
  2.90536171539937799E-02  2.92869782911830828E-02  2.95222138049796683E-02
  2.97593387505367020E-02  2.99983683039316516E-02  3.02393177631375167E-02
  3.04822025490019306E-02  3.07270382062340697E-02  3.09738404043996170E-02
  3.12226249389234746E-02  3.14734077321007708E-02  3.17262048341158606E-02
  3.19810324240695776E-02  3.22379068110146480E-02  3.24968444349995125E-02
  3.27578618681204983E-02  3.30209758155824221E-02  3.32862031167677277E-02
  3.35535607463142219E-02  3.38230658152014474E-02  3.40947355718458148E-02
  3.43685874032044689E-02  3.46446388358881072E-02  3.49229075372826311E-02
  3.52034113166799154E-02  3.54861681264176040E-02  3.57711960630280115E-02
  3.60585133683963763E-02  3.63481384309283298E-02  3.66400897867267053E-02
  3.69343861207779567E-02  3.72310462681478896E-02  3.75300892151872179E-02
  3.78315341007466124E-02  3.81354002174016452E-02  3.84417070126875024E-02
  3.87504740903436354E-02  3.90617212115684093E-02  3.93754682962838207E-02
  3.96917354244103807E-02  4.00105428371522395E-02  4.03319109382926436E-02
  4.06558602954997517E-02  4.09824116416429990E-02  4.13115858761200078E-02
  4.16434040661941354E-02  4.19778874483428197E-02  4.23150574296166718E-02
  4.26549355890095960E-02  4.29975436788397961E-02  4.33429036261419667E-02
  4.36910375340706300E-02  4.40419676833146978E-02  4.43957165335235326E-02
  4.47523067247442841E-02  4.51117610788709031E-02  4.54741026011047447E-02
  4.58393544814269180E-02  4.62075400960824390E-02  4.65786830090763118E-02
  4.69528069736816697E-02  4.73299359339599268E-02  4.77100940262932746E-02
  4.80933055809293908E-02  4.84795951235385617E-02  4.88689873767833849E-02
  4.92615072619009622E-02  4.96571799002979430E-02  5.00560306151582243E-02
  5.04580849330637030E-02  5.08633685856279619E-02  5.12719075111431055E-02
  5.16837278562398070E-02  5.20988559775607193E-02  5.25173184434473139E-02
  5.29391420356402354E-02  5.33643537509933819E-02  5.37929808032016551E-02
  5.42250506245427130E-02  5.46605908676325858E-02  5.50996294071955175E-02
  5.55421943418479003E-02  5.59883139958965922E-02  5.64380169211517457E-02
  5.68913318987540606E-02  5.73482879410168525E-02  5.78089142932827968E-02
  5.82732404357956535E-02  5.87412960855870567E-02  5.92131111983783265E-02
  5.96887159704977618E-02  6.01681408408130877E-02  6.06514164926796606E-02
  6.11385738559041617E-02  6.16296441087241242E-02  6.21246586798033448E-02
  6.26236492502433156E-02  6.31266477556109012E-02  6.36336863879821274E-02
  6.41447975980025259E-02  6.46600140969639942E-02  6.51793688588983289E-02
  6.57028951226875796E-02  6.62306263941913193E-02  6.67625964483910400E-02
  6.72988393315518268E-02  6.78393893634012118E-02  6.83842811393257505E-02
  6.89335495325850839E-02  6.94872296965438757E-02  7.00453570669216097E-02
  7.06079673640604838E-02  7.11750965952115677E-02  7.17467810568392234E-02
  7.23230573369441493E-02  7.29039623174049523E-02  7.34895331763386755E-02
  7.40798073904801596E-02  7.46748227375806095E-02  7.52746172988253276E-02
  7.58792294612709445E-02  7.64886979203022593E-02  7.71030616821086617E-02
  7.77223600661806346E-02  7.83466327078261304E-02  7.89759195607072917E-02
  7.96102608993975169E-02  8.02496973219589821E-02  8.08942697525410342E-02
  8.15440194439992078E-02  8.21989879805355289E-02  8.28592172803599425E-02
  8.35247495983729715E-02  8.41956275288701234E-02  8.48718940082678897E-02
  8.55535923178519370E-02  8.62407660865466691E-02  8.69334592937078682E-02
  8.76317162719372073E-02  8.83355817099196194E-02  8.90451006552834268E-02
  8.97603185174832979E-02  9.04812810707065346E-02  9.12080344568026585E-02
  9.19406251882364245E-02  9.26791001510646889E-02  9.34235066079371484E-02
  9.41738922011211704E-02  9.49303049555508122E-02  9.56927932819005428E-02
  9.64614059796835149E-02  9.72361922403747747E-02  9.80172016505594379E-02
  9.88044841951063457E-02  9.95980902603670754E-02  1.00398070637400680E-01
  1.01204476525224366E-01  1.02017359534090205E-01  1.02836771688788228E-01
  1.03662765431976014E-01  1.04495393627535085E-01  1.05334709563954146E-01
  1.06180766957739647E-01  1.07033619956853551E-01  1.07893323144178890E-01
  1.08759931541013155E-01  1.09633500610589504E-01  1.10514086261626565E-01
  1.11401744851906584E-01  1.12296533191882361E-01  1.13198508548313037E-01
  1.14107728647929327E-01  1.15024251681127912E-01  1.15948136305695795E-01
  1.16879441650564311E-01  1.17818227319593391E-01  1.18764553395386274E-01
  1.19718480443134864E-01  1.20680069514495822E-01  1.21649382151497912E-01
  1.22626480390480783E-01  1.23611426766065222E-01  1.24604284315155509E-01
  1.25605116580973619E-01  1.26613987617126250E-01  1.27630961991704012E-01
  1.28656104791414067E-01  1.29689481625745451E-01  1.30731158631168326E-01
  1.31781202475366621E-01  1.32839680361504731E-01  1.33906660032528685E-01
  1.34982209775501655E-01  1.36066398425974233E-01  1.37159295372390216E-01
  1.38260970560527136E-01  1.39371494497973120E-01  1.40490938258639203E-01
  1.41619373487308214E-01  1.42756872404219887E-01  1.43903507809693243E-01
  1.45059353088785592E-01  1.46224482215989299E-01  1.47398969759966247E-01
  1.48582890888320107E-01  1.49776321372407234E-01  1.50979337592185930E-01
  1.52192016541104952E-01  1.53414435831030899E-01  1.54646673697215603E-01
  1.55888809003303125E-01  1.57140921246376991E-01  1.58403090562048182E-01
  1.59675397729583723E-01  1.60957924177076633E-01  1.62250751986657255E-01
  1.63553963899746746E-01  1.64867643322352375E-01  1.66191874330405553E-01
  1.67526741675142837E-01  1.68872330788529923E-01  1.70228727788729328E-01
  1.71596019485612095E-01  1.72974293386313510E-01  1.74363637700833657E-01
  1.75764141347682923E-01  1.77175893959572700E-01  1.78598985889152045E-01
  1.80033508214790250E-01  1.81479552746405787E-01  1.82937212031342195E-01
  1.84406579360291367E-01  1.85887748773263778E-01  1.87380815065607553E-01
  1.88885873794074954E-01  1.90403021282938373E-01  1.91932354630154928E-01
  1.93473971713580856E-01  1.95027971197235722E-01  1.96594452537616898E-01
  1.98173515990064858E-01  1.99765262615179573E-01  2.01369794285288339E-01
  2.02987213690965729E-01  2.04617624347605775E-01  2.06261130602047066E-01
  2.07917837639250785E-01  2.09587851489032917E-01  2.11271279032849785E-01
  2.12968228010638833E-01  2.14678807027713886E-01  2.16403125561715926E-01
  2.18141293969619648E-01  2.19893423494796458E-01  2.21659626274134075E-01
  2.23440015345213211E-01  2.25234704653542145E-01  2.27043809059849139E-01
  2.28867444347433807E-01  2.30705727229576940E-01  2.32558775357010500E-01
  2.34426707325447126E-01  2.36309642683170368E-01  2.38207701938685706E-01
  2.40121006568433715E-01  2.42049679024563563E-01  2.43993842742770806E-01
  2.45953622150197004E-01  2.47929142673393138E-01  2.49920530746347042E-01
  2.51927913818575100E-01  2.53951420363279112E-01  2.55991179885568687E-01
  2.58047322930749390E-01  2.60119981092678032E-01  2.62209287022184434E-01
  2.64315374435561190E-01  2.66438378123121655E-01  2.68578433957826490E-01
  2.70735678903979593E-01  2.72910251025993922E-01  2.75102289497227426E-01
  2.77311934608890531E-01  2.79539327779024627E-01  2.81784611561552878E-01
  2.84047929655403764E-01  2.86329426913707774E-01  2.88629249353068273E-01
  2.90947544162906413E-01  2.93284459714881207E-01  2.95640145572385771E-01
  2.98014752500119051E-01  3.00408432473734888E-01  3.02821338689568675E-01
  3.05253625574441856E-01  3.07705448795545233E-01  3.10176965270401894E-01
  3.12668333176909841E-01  3.15179711963465392E-01  3.17711262359168245E-01
  3.20263146384107744E-01  3.22835527359732533E-01  3.25428569919303079E-01
  3.28042440018428361E-01  3.30677304945686867E-01  3.33333333333333315E-01
  3.36010695168091178E-01  3.38709561802031656E-01  3.41430105963540509E-01
  3.44172501768372829E-01  3.46936924730796070E-01  3.49723551774823560E-01
  3.52532561245537057E-01  3.55364132920501785E-01  3.58218448021271285E-01
  3.61095689224986194E-01  3.63996040676065835E-01  3.66919687997993016E-01
  3.69866818305194245E-01  3.72837620215015153E-01  3.75832283859791894E-01
  3.78851000899020185E-01  3.81893964531620667E-01  3.84961369508304563E-01
  3.88053412144037491E-01  3.91170290330603521E-01  3.94312203549270324E-01
  3.97479352883556569E-01  4.00671941032100520E-01  4.03890172321633545E-01
  4.07134252720056711E-01  4.10404389849622631E-01  4.13700793000223943E-01
  4.17023673142787488E-01  4.20373242942776615E-01  4.23749716773801632E-01
  4.27153310731340496E-01  4.30584242646568083E-01  4.34042732100298145E-01
  4.37529000437036186E-01  4.41043270779145791E-01  4.44585768041128260E-01
  4.48156718944017707E-01  4.51756352029890673E-01  4.55384897676493428E-01
  4.59042588111985783E-01  4.62729657429804264E-01  4.66446341603643566E-01
  4.70192878502559586E-01  4.73969507906192578E-01  4.77776471520113599E-01
  4.81614012991293194E-01  4.85482377923695474E-01  4.89381813893996653E-01
  4.93312570467429656E-01  4.97274899213756949E-01  5.01269053723370828E-01
  5.05295289623523103E-01  5.09353864594685901E-01  5.13445038387042474E-01
  5.17569072837112176E-01  5.21726231884507397E-01  5.25916781588826154E-01
  5.30140990146679925E-01  5.34399127908858240E-01  5.38691467397631407E-01
  5.43018283324191664E-01  5.47379852606235340E-01  5.51776454385685233E-01
  5.56208370046555878E-01  5.60675883232962358E-01  5.65179279867273565E-01
  5.69718848168411118E-01  5.74294878670296050E-01  5.78907664240442155E-01
  5.83557500098700666E-01  5.88244683836153470E-01  5.92969515434159766E-01
  5.97732297283554481E-01  6.02533334204001791E-01  6.07372933463503295E-01
  6.12251404798063503E-01  6.17169060431513095E-01  6.22126215095491153E-01
  6.27123186049588166E-01  6.32160293101650783E-01  6.37237858628249776E-01
  6.42356207595312090E-01  6.47515667578918430E-01  6.52716568786268936E-01
  6.57959244076815719E-01  6.63244028983567824E-01  6.68571261734562605E-01
  6.73941283274514635E-01  6.79354437286635249E-01  6.84811070214629058E-01
  6.90311531284865887E-01  6.95856172528731887E-01  7.01445348805159186E-01
  7.07079417823337053E-01  7.12758740165606031E-01  7.18483679310534473E-01
  7.24254601656181607E-01  7.30071876543547549E-01  7.35935876280210621E-01
  7.41846976164155847E-01  7.47805554507792958E-01  7.53811992662170138E-01
  7.59866675041379391E-01  7.65969989147159747E-01  7.72122325593697201E-01
  7.78324078132624275E-01  7.84575643678220191E-01  7.90877422332814106E-01
  7.97229817412390518E-01  8.03633235472403284E-01  8.10088086333793478E-01
  8.16594783109219624E-01  8.23153742229496554E-01  8.29765383470246642E-01
  8.36430129978765868E-01  8.43148408301105934E-01  8.49920648409372426E-01
  8.56747283729244025E-01  8.63628751167711317E-01  8.70565491141039316E-01
  8.77557947602953803E-01  8.84606568073055488E-01  8.91711803665460212E-01
  8.98874109117671072E-01  9.06093942819681697E-01  9.13371766843314448E-01
  9.20708046971788541E-01  9.28103252729539308E-01  9.35557857412256499E-01
  9.43072338117187381E-01  9.50647175773658870E-01  9.58282855173869685E-01
  9.65979865003904759E-01  9.73738697875023540E-01  9.81559850355174679E-01
  9.89443823000790146E-01  9.97391120388806840E-01  1.00540225114897375E+00
  1.01347772799639047E+00  1.02161806776433495E+00  1.02982379143732783E+00
  1.03809542418448841E+00  1.04643349539313246E+00  1.05483853870266664E+00
  1.06331109203872831E+00  1.07185169764762667E+00  1.08046090213103230E+00
  1.08913925648097387E+00  1.09788731611508905E+00  1.10670564091218160E+00
  1.11559479524805094E+00  1.12455534803160484E+00  1.13358787274128381E+00
  1.14269294746174821E+00  1.15187115492089220E+00  1.16112308252712193E+00
  1.17044932240696631E+00  1.17985047144295696E+00  1.18932713131184520E+00
  1.19887990852309301E+00  1.20850941445770710E+00  1.21821626540734984E+00
  1.22800108261379948E+00  1.23786449230869278E+00  1.24780712575362118E+00
  1.25782961928051473E+00  1.26793261433238480E+00  1.27811675750435838E+00
  1.28838270058507920E+00  1.29873110059840413E+00  1.30916261984547089E+00
  1.31967792594706701E+00  1.33027769188637746E+00  1.34096259605203483E+00
  1.35173332228155885E+00  1.36259055990509848E+00  1.37353500378957327E+00
  1.38456735438312251E+00  1.39568831775995483E+00  1.40689860566551683E+00
  1.41819893556206655E+00  1.42959003067456947E+00  1.44107262003700587E+00
  1.45264743853900913E+00  1.46431522697291960E+00  1.47607673208117429E+00
  1.48793270660412014E+00  1.49988390932816795E+00  1.51193110513437712E+00
  1.52407506504738577E+00  1.53631656628477864E+00  1.54865639230680863E+00
  1.56109533286655799E+00  1.57363418406046285E+00  1.58627374837928570E+00
  1.59901483475945061E+00  1.61185825863484200E+00  1.62480484198896469E+00
  1.63785541340757912E+00  1.65101080813170431E+00  1.66427186811109906E+00
  1.67763944205812288E+00  1.69111438550207693E+00  1.70469756084393498E+00
  1.71838983741156137E+00  1.73219209151532394E+00  1.74610520650420287E+00
  1.76013007282230016E+00  1.77426758806585361E+00  1.78851865704065793E+00
  1.80288419181999804E+00  1.81736511180299765E+00  1.83196234377348444E+00
  1.84667682195928062E+00  1.86150948809201910E+00  1.87646129146738883E+00
  1.89153318900591594E+00  1.90672614531418083E+00  1.92204113274657984E+00
  1.93747913146752904E+00  1.95304112951422337E+00  1.96872812285984278E+00
  1.98454111547732270E+00  2.00048111940358053E+00  2.01654915480431685E+00
  2.03274625003927367E+00  2.04907344172808203E+00  2.06553177481657579E+00
  2.08212230264369813E+00  2.09884608700888542E+00  2.11570419824005240E+00
  2.13269771526206453E+00  2.14982772566582048E+00  2.16709532577782360E+00
  2.18450162073038445E+00  2.20204772453231312E+00  2.21973476014024929E+00
  2.23756385953050163E+00  2.25553616377152455E+00  2.27365282309691663E+00
  2.29191499697906576E+00  2.31032385420332576E+00  2.32888057294285167E+00
  2.34758634083396789E+00  2.36644235505221312E+00  2.38544982238892445E+00
  2.40460995932850841E+00  2.42392399212626009E+00  2.44339315688688030E+00
  2.46301869964355014E+00  2.48280187643771377E+00  2.50274395339942979E+00
  2.52284620682843963E+00  2.54310992327581520E+00  2.56353639962633517E+00